LAMMPS data file via write_data, version 29 Aug 2024, timestep = 2000000, units = real > auto_morse_bond version: v1.11 / 13 November 2024

1200 atoms
1800 bonds
3600 angles
7200 dihedrals
1200 impropers

1 atom types
1 bond types
1 angle types
1 dihedral types
1 improper types

-24.157009289366833 24.157009289366833 xlo xhi
-24.66496418888368 24.66496418888368 ylo yhi
-24.18040141970816 24.18040141970816 zlo zhi

Atom Type Labels

 1  cp

Bond Type Labels

 1  cp-cp

Angle Type Labels

 1  cp-cp-cp

Dihedral Type Labels

 1  cp-cp-cp-cp

Improper Type Labels

 1  cp-cp-cp-cp-nb==3

Masses

 1   12.01115  # cp

Pair Coeffs  # lj/class2/coul/long

 1        0.06400000      4.01000000 # cp

Bond Coeffs  # morse

 1      124.00000000      2.40000000      1.41700000                                 # cp          cp   

Angle Coeffs  # class2xe

 1      118.90000000     61.02260000    -34.99310000               0 # cp         cp         cp   

Dihedral Coeffs  # class2xe

 1        8.36670000               0      1.19320000               0               0               0 # cp         cp        cp         cp   

Improper Coeffs  # class2

 1        7.17940000               0 # cp         cp        cp        cp      nb==3   

BondBond Coeffs  # class2xe

 1      124.00000000      0.52473342      1.41700000      1.41700000 # cp         cp         cp   

BondAngle Coeffs  # class2xe

 1      124.00000000    124.00000000      0.34119572      0.34119572      1.41700000      1.41700000 # cp         cp         cp   

AngleAngleTorsion Coeffs  # class2xe

 1                 0    118.90000000    118.90000000 # cp         cp        cp         cp   

EndBondTorsion Coeffs  # class2xe

 1        2.40000000      2.40000000     -0.11850000      6.32040000               0     -0.11850000      6.32040000               0      1.41700000      1.41700000 # cp         cp        cp         cp   

MiddleBondTorsion Coeffs  # class2xe

 1        2.40000000     27.59890000     -2.31200000               0      1.41700000 # cp         cp        cp         cp   

BondBond13 Coeffs  # class2xe

 1      124.00000000      0.46228744      1.41700000      1.41700000 # cp         cp        cp         cp   

AngleTorsion Coeffs  # class2xe

 1        1.97670000      1.02390000               0      1.97670000      1.02390000               0    118.90000000    118.90000000 # cp         cp        cp         cp   

AngleAngle Coeffs

 1                 0               0               0    118.90000000    118.90000000    118.90000000 # cp         cp        cp        cp      nb==3   

Atoms # full

 246    1   1   0.000000   -9.371777492    -3.693189900    -19.863032600  0  0  0  # cp/C
 250    1   1   0.000000   -9.247355467    -3.646708776    -17.446798881  0  0  0  # cp/C
 242    1   1   0.000000   -9.463491615    -3.702800071    -22.279997113  0  0  0  # cp/C
 251    1   1   0.000000   -8.712584534    -4.907504310    -17.452980024  0  0  0  # cp/C
 243    1   1   0.000000   -8.712591746    -4.896679872    -22.267524577  0  0  0  # cp/C
 247    1   1   0.000000   -8.729575023    -4.901071470    -19.875279760  0  0  0  # cp/C
 252    1   1   0.000000   -8.336581950    -5.469347411    -18.660067582  0  0  0  # cp/C
 248    1   1   0.000000   -8.332669106    -5.476939730    -21.049312888  0  0  0  # cp/C
 244    1   1   0.000000   -8.324424429    -5.552171679    -23.473689092  0  0  0  # cp/C
 256    1   1   0.000000   -8.376151259    -5.511316574    -16.260454948  0  0  0  # cp/C
 402    1   1   0.000000   -3.297414585    -8.987634080    -22.212497527  0  0  0  # cp/C
 403    1   1   0.000000   -1.933246027    -9.322869518    -22.302619953  0  0  0  # cp/C
 407    1   1   0.000000   -2.000720971    -9.431700688    -19.890596800  0  0  0  # cp/C
 411    1   1   0.000000   -1.993981243    -9.628394454    -17.491122444  0  0  0  # cp/C
 409    1   1   0.000000   -4.059423617    -9.058598096    -18.673524930  0  0  0  # cp/C
 405    1   1   0.000000   -3.999678798    -8.851244259    -21.020077763  0  0  0  # cp/C
 413    1   1   0.000000   -4.091281214    -9.107107821    -16.270847982  0  0  0  # cp/C
 410    1   1   0.000000   -3.418524449    -9.422227951    -17.444002998  0  0  0  # cp/C
 401    1   1   0.000000   -3.952908188    -8.779388524    -23.421224522  0  0  0  # cp/C
 328    1   1   0.000000   -5.253962848    -8.206882891    -21.051428214  0  0  0  # cp/C
 332    1   1   0.000000   -5.239902413    -8.331005596    -18.625093016  0  0  0  # cp/C
 327    1   1   0.000000   -5.797979254    -7.876803130    -19.789300315  0  0  0  # cp/C
 333    1   1   0.000000   -7.483889487    -6.680795023    -16.233685764  0  0  0  # cp/C
 329    1   1   0.000000   -7.391172668    -6.526003535    -18.616242510  0  0  0  # cp/C
 321    1   1   0.000000   -7.548270572    -6.704751434    -23.472745784  0  0  0  # cp/C
 325    1   1   0.000000   -7.431139398    -6.577139463    -21.066231667  0  0  0  # cp/C
 322    1   1   0.000000   -6.985183782    -7.093132866    -22.265633085  0  0  0  # cp/C
 326    1   1   0.000000   -6.905661338    -7.079625723    -19.849647481  0  0  0  # cp/C
 330    1   1   0.000000   -6.933244664    -7.079394828    -17.432961930  0  0  0  # cp/C
 323    1   1   0.000000   -5.875516032    -7.949897909    -22.269581273  0  0  0  # cp/C
 331    1   1   0.000000   -5.857136468    -7.957363777    -17.424299386  0  0  0  # cp/C
 336    1   1   0.000000   -5.264766977    -8.356277898    -16.237029849  0  0  0  # cp/C
 324    1   1   0.000000   -5.290502003    -8.226286208    -23.498508009  0  0  0  # cp/C
 406    1   1   0.000000   -3.353528267    -9.143067924    -19.865034022  0  0  0  # cp/C
 404    1   1   0.000000   -1.296421224    -9.635794226    -23.472923780  0  0  0  # cp/C
 412    1   1   0.000000   -1.300489933    -9.660458652    -18.684274352  0  0  0  # cp/C
 408    1   1   0.000000   -1.303388604    -9.502194280    -21.098106431  0  0  0  # cp/C
 416    1   1   0.000000   -1.331880474    -9.811847635    -16.270673070  0  0  0  # cp/C
 489    1   1   0.000000    0.058667889    -9.901882299    -18.679104235  0  0  0  # cp/C
 485    1   1   0.000000    0.075695943    -9.713628956    -21.075994885  0  0  0  # cp/C
 481    1   1   0.000000    0.074420855    -9.717631971    -23.447381656  0  0  0  # cp/C
 486    1   1   0.000000    0.781854031    -9.891660035    -19.861599193  0  0  0  # cp/C
 490    1   1   0.000000    0.792624852    -9.960259295    -17.476578072  0  0  0  # cp/C
 482    1   1   0.000000    0.810212957    -9.761856928    -22.258936542  0  0  0  # cp/C
 487    1   1   0.000000    2.174491077    -9.722291503    -19.854519820  0  0  0  # cp/C
 483    1   1   0.000000    2.221322154    -9.653938006    -22.301082537  0  0  0  # cp/C
 491    1   1   0.000000    2.157642911    -9.632608790    -17.407888766  0  0  0  # cp/C
 484    1   1   0.000000    2.895412734    -9.494858718    -23.499723368  0  0  0  # cp/C
 496    1   1   0.000000    2.800472406    -9.385274995    -16.188030042  0  0  0  # cp/C
 492    1   1   0.000000    2.853199593    -9.471433930    -18.614436178  0  0  0  # cp/C
 488    1   1   0.000000    2.850412443    -9.549408910    -21.085287955  0  0  0  # cp/C
 565    1   1   0.000000    4.143484344    -8.998563769    -21.080899394  0  0  0  # cp/C
 573    1   1   0.000000    4.110454149    -8.927785488    -16.183232723  0  0  0  # cp/C
 561    1   1   0.000000    4.168801019    -8.978335928    -23.504814954  0  0  0  # cp/C
 569    1   1   0.000000    4.076031088    -8.870978265    -18.611906921  0  0  0  # cp/C
 570    1   1   0.000000    4.795052105    -8.687566326    -17.399193072  0  0  0  # cp/C
 566    1   1   0.000000    4.740038843    -8.654059892    -19.849468794  0  0  0  # cp/C
 562    1   1   0.000000    4.830169612    -8.784930303    -22.273806834  0  0  0  # cp/C
 493    1   1   0.000000    0.054103521    -9.990191784    -16.251831499  0  0  0  # cp/C
 571    1   1   0.000000    6.038496619    -8.070874466    -17.423376453  0  0  0  # cp/C
 563    1   1   0.000000    6.075382545    -8.144163640    -22.259996390  0  0  0  # cp/C
 567    1   1   0.000000    5.994023713    -8.031793566    -19.826866025  0  0  0  # cp/C
 564    1   1   0.000000    6.700152764    -7.798652725    -23.466448623  0  0  0  # cp/C
 572    1   1   0.000000    6.585143703    -7.641873577    -18.630260074  0  0  0  # cp/C
 568    1   1   0.000000    6.618698231    -7.794505646    -21.064442787  0  0  0  # cp/C
 576    1   1   0.000000    6.717163425    -7.788227115    -16.215647659  0  0  0  # cp/C
 653    1   1   0.000000    7.792627647    -6.895199379    -16.243107883  0  0  0  # cp/C
 649    1   1   0.000000    7.778241665    -6.870247178    -18.607283383  0  0  0  # cp/C
 641    1   1   0.000000    7.720913348    -6.821031727    -23.488558230  0  0  0  # cp/C
 645    1   1   0.000000    7.733782718    -6.867264084    -21.035878094  0  0  0  # cp/C
 642    1   1   0.000000    8.165918240    -6.333611659    -22.241423136  0  0  0  # cp/C
 646    1   1   0.000000    8.193099432    -6.382674960    -19.814801193  0  0  0  # cp/C
 650    1   1   0.000000    8.177853108    -6.343896270    -17.432315125  0  0  0  # cp/C
 643    1   1   0.000000    8.912307918    -5.177914978    -22.222103501  0  0  0  # cp/C
 651    1   1   0.000000    9.064266430    -5.181823832    -17.428046097  0  0  0  # cp/C
 647    1   1   0.000000    8.846052089    -5.104587756    -19.823222345  0  0  0  # cp/C
 652    1   1   0.000000    9.307793300    -4.530937386    -18.631253942  0  0  0  # cp/C
 656    1   1   0.000000    9.437023479    -4.564493013    -16.247763934  0  0  0  # cp/C
 644    1   1   0.000000    9.204418685    -4.537145818    -23.488284728  0  0  0  # cp/C
 648    1   1   0.000000    9.285390197    -4.511222288    -21.037949147  0  0  0  # cp/C
 245    1   1   0.000000   -9.682438530    -3.053749908    -21.091548204  0  0  0  # cp/C
 249    1   1   0.000000   -9.485520287    -2.984292125    -18.654277358  0  0  0  # cp/C
 241    1   1   0.000000   -9.701273253    -3.033176767    -23.503494744  0  0  0  # cp/C
 253    1   1   0.000000   -9.492379992    -2.981568607    -16.222884636  0  0  0  # cp/C
 164    1   1   0.000000   -10.098947194   -1.636775796    -23.517937958  0  0  0  # cp/C
 172    1   1   0.000000   -10.021804723   -1.683190616    -18.679807585  0  0  0  # cp/C
 168    1   1   0.000000   -9.995373829    -1.712038879    -21.120411105  0  0  0  # cp/C
 176    1   1   0.000000   -10.038532623   -1.692679920    -16.278310674  0  0  0  # cp/C
 167    1   1   0.000000   -10.060040545   -0.995435024    -19.882535489  0  0  0  # cp/C
 163    1   1   0.000000   -10.077665516   -0.972002442    -22.332104109  0  0  0  # cp/C
 171    1   1   0.000000   -10.245345613   -1.014820614    -17.502653171  0  0  0  # cp/C
 162    1   1   0.000000   -10.187461241    0.435247665    -22.312389070  0  0  0  # cp/C
 170    1   1   0.000000   -10.265818089    0.389490884    -17.493273936  0  0  0  # cp/C
 166    1   1   0.000000   -10.223257056    0.431293450    -19.924880835  0  0  0  # cp/C
 173    1   1   0.000000   -10.189769486    1.088506118    -16.268862630  0  0  0  # cp/C
 161    1   1   0.000000   -10.269713409    1.133680434    -23.561096146  0  0  0  # cp/C
 169    1   1   0.000000   -10.188307524    1.086655121    -18.705189482  0  0  0  # cp/C
 165    1   1   0.000000   -10.272452779    1.121141001    -21.133407396  0  0  0  # cp/C
  84    1   1   0.000000   -10.019308708    2.500276310    -23.601845183  0  0  0  # cp/C
  88    1   1   0.000000   -10.111625231    2.515278338    -21.165703868  0  0  0  # cp/C
  92    1   1   0.000000   -9.967539693     2.479609411    -18.678010875  0  0  0  # cp/C
  96    1   1   0.000000   -9.931639039     2.445637303    -16.263713926  0  0  0  # cp/C
  83    1   1   0.000000   -9.931013952     3.206268019    -22.394389631  0  0  0  # cp/C
  87    1   1   0.000000   -9.884295416     3.208484308    -19.962656371  0  0  0  # cp/C
  91    1   1   0.000000   -9.745187999     3.095728289    -17.469829431  0  0  0  # cp/C
 725    1   1   0.000000    9.925272740    -3.234373400    -21.060290495  0  0  0  # cp/C
 721    1   1   0.000000    9.723242223    -3.237675893    -23.501191682  0  0  0  # cp/C
 729    1   1   0.000000    9.842729627    -3.247001331    -18.627172071  0  0  0  # cp/C
 733    1   1   0.000000    9.851130403    -3.193971073    -16.204533326  0  0  0  # cp/C
 726    1   1   0.000000   10.080939315    -2.558312150    -19.846838846  0  0  0  # cp/C
 722    1   1   0.000000    9.955576675    -2.586936917    -22.281483762  0  0  0  # cp/C
 730    1   1   0.000000   10.022789571    -2.556514805    -17.436379094  0  0  0  # cp/C
 727    1   1   0.000000   10.194910928    -1.186409988    -19.859774204  0  0  0  # cp/C
 723    1   1   0.000000   10.143171226    -1.211243623    -22.295535738  0  0  0  # cp/C
 731    1   1   0.000000   10.129170129    -1.127407939    -17.452356728  0  0  0  # cp/C
 732    1   1   0.000000   10.254550159    -0.403147938    -18.680402852  0  0  0  # cp/C
 724    1   1   0.000000   10.095061179    -0.495452989    -23.507561100  0  0  0  # cp/C
 728    1   1   0.000000   10.104573064    -0.492048825    -21.097463300  0  0  0  # cp/C
 736    1   1   0.000000   10.005758429    -0.393964445    -16.268749461  0  0  0  # cp/C
 813    1   1   0.000000    9.925730975     0.987628962    -16.260104626  0  0  0  # cp/C
 809    1   1   0.000000   10.031535895     0.978686155    -18.667778154  0  0  0  # cp/C
 801    1   1   0.000000    9.847641880     0.876447014    -23.497033487  0  0  0  # cp/C
 805    1   1   0.000000    9.877079597     0.885678339    -21.071136332  0  0  0  # cp/C
 810    1   1   0.000000    9.830285017     1.668753646    -17.471992810  0  0  0  # cp/C
 806    1   1   0.000000    9.814744390     1.586545907    -19.895605079  0  0  0  # cp/C
 802    1   1   0.000000    9.641459336     1.534751618    -22.303786176  0  0  0  # cp/C
 811    1   1   0.000000    9.356649866     3.009438941    -17.489756909  0  0  0  # cp/C
 807    1   1   0.000000    9.346487149     2.913321552    -19.909502700  0  0  0  # cp/C
 803    1   1   0.000000    9.184589551     2.843625632    -22.286869651  0  0  0  # cp/C
  82    1   1   0.000000   -9.260123362     4.473927043    -22.351499714  0  0  0  # cp/C
  86    1   1   0.000000   -9.322352530     4.484234081    -19.925607511  0  0  0  # cp/C
  90    1   1   0.000000   -9.229470361     4.438222386    -17.460980134  0  0  0  # cp/C
  89    1   1   0.000000   -8.868890663     5.005715283    -18.715086655  0  0  0  # cp/C
  93    1   1   0.000000   -8.905473369     5.079933681    -16.280186285  0  0  0  # cp/C
  85    1   1   0.000000   -8.881503084     5.037023747    -21.176179570  0  0  0  # cp/C
  81    1   1   0.000000   -8.683062748     4.987657663    -23.553393508  0  0  0  # cp/C
  4     1   1   0.000000   -7.860179688     6.088523671    -23.547616342  0  0  0  # cp/C
  12    1   1   0.000000   -7.921090514     5.986763038    -18.720156875  0  0  0  # cp/C
  16    1   1   0.000000   -7.996254889     6.152541760    -16.311584299  0  0  0  # cp/C
  8     1   1   0.000000   -7.932012544     6.009145132    -21.154642961  0  0  0  # cp/C
  3     1   1   0.000000   -7.372981691     6.524292933    -22.322753521  0  0  0  # cp/C
  7     1   1   0.000000   -7.393694187     6.465879701    -19.963318092  0  0  0  # cp/C
  11    1   1   0.000000   -7.468678522     6.613170998    -17.522276511  0  0  0  # cp/C
  6     1   1   0.000000   -6.311549971     7.415944368    -19.915830330  0  0  0  # cp/C
  2     1   1   0.000000   -6.343520737     7.524959250    -22.291692419  0  0  0  # cp/C
  10    1   1   0.000000   -6.420195287     7.556302742    -17.464658383  0  0  0  # cp/C
  13    1   1   0.000000   -6.002217538     8.120286627    -16.282089840  0  0  0  # cp/C
  9     1   1   0.000000   -5.802006734     7.920529592    -18.679123175  0  0  0  # cp/C
  5     1   1   0.000000   -5.773381671     7.865119591    -21.129151659  0  0  0  # cp/C
  1     1   1   0.000000   -5.877923844     8.099903926    -23.480590750  0  0  0  # cp/C
 1124   1   1   0.000000   -4.747519985     8.959932212    -23.515877921  0  0  0  # cp/C
 1128   1   1   0.000000   -4.665072701     8.737741108    -21.087157612  0  0  0  # cp/C
 1132   1   1   0.000000   -4.694662445     8.728228807    -18.701260669  0  0  0  # cp/C
 1136   1   1   0.000000   -4.786540685     8.815988001    -16.286223545  0  0  0  # cp/C
 1131   1   1   0.000000   -4.158296833     9.179075206    -17.510846161  0  0  0  # cp/C
 1123   1   1   0.000000   -4.078315583     9.157069259    -22.293514289  0  0  0  # cp/C
 1127   1   1   0.000000   -4.080973691     9.122551109    -19.883894272  0  0  0  # cp/C
 1130   1   1   0.000000   -2.874118745     9.710857936    -17.442402164  0  0  0  # cp/C
 1122   1   1   0.000000   -2.824288999     9.739573332    -22.243787320  0  0  0  # cp/C
 1126   1   1   0.000000   -2.816130832     9.716958778    -19.868274234  0  0  0  # cp/C
 1133   1   1   0.000000   -2.153321065     9.712224160    -16.236472273  0  0  0  # cp/C
 1125   1   1   0.000000   -2.142273335     9.969706474    -21.037235439  0  0  0  # cp/C
 1129   1   1   0.000000   -2.174544975     9.934724615    -18.644630277  0  0  0  # cp/C
 1121   1   1   0.000000   -2.143631931     9.909741514    -23.460884654  0  0  0  # cp/C
 1044   1   1   0.000000   -0.762689518    10.171277816    -23.469690986  0  0  0  # cp/C
 1048   1   1   0.000000   -0.757969431    10.186045546    -21.032886769  0  0  0  # cp/C
 1056   1   1   0.000000   -0.741907612     9.953574344    -16.212116682  0  0  0  # cp/C
 1052   1   1   0.000000   -0.775312304    10.135981884    -18.636254883  0  0  0  # cp/C
 1051   1   1   0.000000   -0.064630762    10.027440331    -17.403005067  0  0  0  # cp/C
 1047   1   1   0.000000   -0.071794983    10.170646913    -19.853128376  0  0  0  # cp/C
 1043   1   1   0.000000   -0.009982541    10.161698692    -22.274613789  0  0  0  # cp/C
 1050   1   1   0.000000    1.321016821     9.828587340    -17.420381844  0  0  0  # cp/C
 1042   1   1   0.000000    1.334920184     9.955216694    -22.258364265  0  0  0  # cp/C
 1046   1   1   0.000000    1.302283874    10.007957634    -19.913195897  0  0  0  # cp/C
 1053   1   1   0.000000    2.009219831     9.769533318    -16.225518666  0  0  0  # cp/C
 1049   1   1   0.000000    1.991401722     9.792823859    -18.658524402  0  0  0  # cp/C
 972    1   1   0.000000    3.377748951     9.492521089    -18.658171968  0  0  0  # cp/C
 963    1   1   0.000000    4.053510965     9.264817543    -22.268385662  0  0  0  # cp/C
 970    1   1   0.000000    5.361007826     8.663168884    -17.487017520  0  0  0  # cp/C
 962    1   1   0.000000    5.196017940     8.442386983    -22.270289140  0  0  0  # cp/C
 961    1   1   0.000000    5.763012138     8.035177519    -23.550548491  0  0  0  # cp/C
 969    1   1   0.000000    5.808205357     8.082486515    -18.693394025  0  0  0  # cp/C
 965    1   1   0.000000    5.702234359     8.002298989    -21.085823942  0  0  0  # cp/C
 973    1   1   0.000000    5.882794607     8.215643711    -16.238278566  0  0  0  # cp/C
 892    1   1   0.000000    6.781275678     7.102224692    -18.657145848  0  0  0  # cp/C
 888    1   1   0.000000    6.652972830     6.986043202    -21.109030935  0  0  0  # cp/C
 884    1   1   0.000000    6.768606559     7.060751208    -23.555814010  0  0  0  # cp/C
 891    1   1   0.000000    7.329068015     6.677364090    -17.440915131  0  0  0  # cp/C
 883    1   1   0.000000    7.195164182     6.530973072    -22.293670134  0  0  0  # cp/C
 887    1   1   0.000000    7.129768642     6.481062511    -19.882153893  0  0  0  # cp/C
 967    1   1   0.000000    3.960946559     9.188786655    -19.859247809  0  0  0  # cp/C
 966    1   1   0.000000    5.077552760     8.413509321    -19.870223006  0  0  0  # cp/C
 968    1   1   0.000000    3.383972169     9.527619316    -21.060055560  0  0  0  # cp/C
 964    1   1   0.000000    3.396060550     9.558673552    -23.499549558  0  0  0  # cp/C
 976    1   1   0.000000    3.422357293     9.568271802    -16.284647521  0  0  0  # cp/C
 971    1   1   0.000000    4.081200473     9.259799155    -17.462231327  0  0  0  # cp/C
 1045   1   1   0.000000    2.017777624     9.909931287    -21.051578363  0  0  0  # cp/C
 1041   1   1   0.000000    2.015447401     9.870875222    -23.470145948  0  0  0  # cp/C
 896    1   1   0.000000    6.879412797     7.279706962    -16.268628773  0  0  0  # cp/C
 882    1   1   0.000000    8.028860235     5.403737995    -22.301593297  0  0  0  # cp/C
 886    1   1   0.000000    8.072353858     5.396205607    -19.916894598  0  0  0  # cp/C
 890    1   1   0.000000    8.080592619     5.508076679    -17.462768432  0  0  0  # cp/C
 893    1   1   0.000000    8.391787186     4.873492734    -16.274792375  0  0  0  # cp/C
 889    1   1   0.000000    8.494614833     4.856883097    -18.701963859  0  0  0  # cp/C
 885    1   1   0.000000    8.380601001     4.778814567    -21.112241055  0  0  0  # cp/C
 881    1   1   0.000000    8.501969635     4.848488601    -23.535142125  0  0  0  # cp/C
 816    1   1   0.000000    9.074091392     3.657759410    -16.270950473  0  0  0  # cp/C
 804    1   1   0.000000    9.039464850     3.548943456    -23.517524397  0  0  0  # cp/C
 808    1   1   0.000000    8.921322389     3.528293969    -21.074758599  0  0  0  # cp/C
 812    1   1   0.000000    9.102573783     3.611934360    -18.695323710  0  0  0  # cp/C
 258    1   1   0.000000   -9.258771399    -3.635234181    -12.601881273  0  0  0  # cp/C
 254    1   1   0.000000   -9.218718277    -3.642461861    -15.031657409  0  0  0  # cp/C
 262    1   1   0.000000   -9.554197967    -3.803042900    -10.207797659  0  0  0  # cp/C
 255    1   1   0.000000   -8.721160777    -4.990329640    -15.015080392  0  0  0  # cp/C
 259    1   1   0.000000   -8.627142210    -4.877251360    -12.620755844  0  0  0  # cp/C
 263    1   1   0.000000   -8.836050643    -5.013641396    -10.197204926  0  0  0  # cp/C
 268    1   1   0.000000   -8.371839334    -5.554681270    -8.987786368   0  0  0  # cp/C
 264    1   1   0.000000   -8.296869935    -5.533526840    -11.430058738  0  0  0  # cp/C
 260    1   1   0.000000   -8.327553971    -5.571906174    -13.785444330  0  0  0  # cp/C
 423    1   1   0.000000   -1.907634838    -9.659359430    -10.184997642  0  0  0  # cp/C
 415    1   1   0.000000   -2.114623628    -9.785168723    -15.043405818  0  0  0  # cp/C
 419    1   1   0.000000   -2.002119827    -9.813010616    -12.651996187  0  0  0  # cp/C
 417    1   1   0.000000   -3.982719948    -9.000800782    -13.834745581  0  0  0  # cp/C
 421    1   1   0.000000   -3.893831891    -8.844470484    -11.409763536  0  0  0  # cp/C
 425    1   1   0.000000   -3.875269928    -8.924078552    -9.011456867   0  0  0  # cp/C
 418    1   1   0.000000   -3.322142408    -9.265551546    -12.610940462  0  0  0  # cp/C
 422    1   1   0.000000   -3.209824961    -9.165652904    -10.215157158  0  0  0  # cp/C
 414    1   1   0.000000   -3.421997420    -9.390126988    -15.048053243  0  0  0  # cp/C
 341    1   1   0.000000   -7.320502011    -6.554238869    -11.352267240  0  0  0  # cp/C
 345    1   1   0.000000   -7.372851304    -6.566472168    -8.973305304   0  0  0  # cp/C
 337    1   1   0.000000   -7.509641359    -6.720977355    -13.700456393  0  0  0  # cp/C
 338    1   1   0.000000   -6.890006563    -7.135301242    -12.522217111  0  0  0  # cp/C
 334    1   1   0.000000   -7.048404912    -7.275306059    -14.994694838  0  0  0  # cp/C
 342    1   1   0.000000   -6.807950195    -7.032781940    -10.162418534  0  0  0  # cp/C
 339    1   1   0.000000   -5.814048182    -7.986814360    -12.575778325  0  0  0  # cp/C
 343    1   1   0.000000   -5.648200238    -7.820301588    -10.180566018  0  0  0  # cp/C
 335    1   1   0.000000   -5.875617017    -8.025733548    -14.980851520  0  0  0  # cp/C
 348    1   1   0.000000   -5.082068711    -8.254501529    -8.947247383   0  0  0  # cp/C
 344    1   1   0.000000   -5.190531967    -8.334434999    -11.387206436  0  0  0  # cp/C
 340    1   1   0.000000   -5.223588194    -8.368764202    -13.790507350  0  0  0  # cp/C
 424    1   1   0.000000   -1.290740721    -9.955308259    -11.433912742  0  0  0  # cp/C
 428    1   1   0.000000   -1.280409741    -9.889889323    -8.931494327   0  0  0  # cp/C
 420    1   1   0.000000   -1.375313758    -9.965219239    -13.839086506  0  0  0  # cp/C
 501    1   1   0.000000    0.108163967    -10.198885333   -11.379673691  0  0  0  # cp/C
 505    1   1   0.000000    0.086661872    -9.990549607    -8.961532598   0  0  0  # cp/C
 497    1   1   0.000000    0.035633317    -9.989924410    -13.834387186  0  0  0  # cp/C
 494    1   1   0.000000    0.717237824    -9.873266998    -15.044242210  0  0  0  # cp/C
 498    1   1   0.000000    0.772706613    -10.127965567   -12.633218728  0  0  0  # cp/C
 502    1   1   0.000000    0.817019903    -10.041401938   -10.149188305  0  0  0  # cp/C
 503    1   1   0.000000    2.185317968    -9.630934458    -10.169114117  0  0  0  # cp/C
 495    1   1   0.000000    2.110989193    -9.638924510    -15.040087788  0  0  0  # cp/C
 499    1   1   0.000000    2.156540875    -9.842226233    -12.647925545  0  0  0  # cp/C
 508    1   1   0.000000    2.842083468    -9.425095234    -8.949534247   0  0  0  # cp/C
 504    1   1   0.000000    2.801724705    -9.538366985    -11.413118777  0  0  0  # cp/C
 500    1   1   0.000000    2.795231029    -9.508810795    -13.848493912  0  0  0  # cp/C
 577    1   1   0.000000    4.019149038    -8.802321954    -13.775868448  0  0  0  # cp/C
 581    1   1   0.000000    3.983623651    -8.761874573    -11.402244471  0  0  0  # cp/C
 585    1   1   0.000000    4.110852982    -8.898303028    -8.971037544   0  0  0  # cp/C
 582    1   1   0.000000    4.694543108    -8.466982265    -10.187599022  0  0  0  # cp/C
 578    1   1   0.000000    4.566561817    -8.296066927    -12.620562863  0  0  0  # cp/C
 574    1   1   0.000000    4.776755958    -8.607379629    -14.969492993  0  0  0  # cp/C
 579    1   1   0.000000    5.820939476    -7.709744328    -12.567087274  0  0  0  # cp/C
 583    1   1   0.000000    5.901120052    -7.784300128    -10.161321988  0  0  0  # cp/C
 575    1   1   0.000000    6.021621721    -8.020685886    -15.020822597  0  0  0  # cp/C
 588    1   1   0.000000    6.554449139    -7.574835717    -8.979280635   0  0  0  # cp/C
 584    1   1   0.000000    6.469690042    -7.390886472    -11.364699406  0  0  0  # cp/C
 580    1   1   0.000000    6.540887133    -7.544679902    -13.792029426  0  0  0  # cp/C
 657    1   1   0.000000    7.722502381    -6.789522039    -13.752025007  0  0  0  # cp/C
 661    1   1   0.000000    7.695625159    -6.778389400    -11.357797547  0  0  0  # cp/C
 665    1   1   0.000000    7.755076901    -6.788807649    -8.980842094   0  0  0  # cp/C
 658    1   1   0.000000    8.257660791    -6.366054718    -12.580032503  0  0  0  # cp/C
 654    1   1   0.000000    8.324851567    -6.397505953    -15.007795864  0  0  0  # cp/C
 662    1   1   0.000000    8.287416225    -6.348422511    -10.168050292  0  0  0  # cp/C
 659    1   1   0.000000    8.906603091    -5.112383400    -12.609819064  0  0  0  # cp/C
 663    1   1   0.000000    9.051621513    -5.181548258    -10.228300562  0  0  0  # cp/C
 655    1   1   0.000000    9.128423213    -5.234212336    -15.046161088  0  0  0  # cp/C
 668    1   1   0.000000    9.382112250    -4.546303169    -8.974522051   0  0  0  # cp/C
 664    1   1   0.000000    9.356257760    -4.530837809    -11.421048817  0  0  0  # cp/C
 660    1   1   0.000000    9.268416880    -4.545593582    -13.844139036  0  0  0  # cp/C
 265    1   1   0.000000   -9.859934752    -3.179374880    -8.990868426   0  0  0  # cp/C
 261    1   1   0.000000   -9.703467022    -3.080493282    -11.415656206  0  0  0  # cp/C
 257    1   1   0.000000   -9.538529134    -3.020859034    -13.816492778  0  0  0  # cp/C
 188    1   1   0.000000   -10.262397334   -1.832954879    -8.971031853   0  0  0  # cp/C
 180    1   1   0.000000   -9.898814461    -1.685119826    -13.807901838  0  0  0  # cp/C
 184    1   1   0.000000   -10.025549267   -1.710795801    -11.410143153  0  0  0  # cp/C
 179    1   1   0.000000   -10.046191192   -0.999220016    -12.580875317  0  0  0  # cp/C
 175    1   1   0.000000   -10.143377389   -0.999990745    -15.075518559  0  0  0  # cp/C
 183    1   1   0.000000   -10.411639234   -1.087530603    -10.199538783  0  0  0  # cp/C
 182    1   1   0.000000   -10.347149218    0.302784932    -10.203365779  0  0  0  # cp/C
 174    1   1   0.000000   -10.238679766    0.391144255    -15.048521324  0  0  0  # cp/C
 178    1   1   0.000000   -10.323623803    0.360969350    -12.608474302  0  0  0  # cp/C
 181    1   1   0.000000   -10.259542642    1.030765121    -11.443860984  0  0  0  # cp/C
 177    1   1   0.000000   -10.291999161    1.070750778    -13.837019912  0  0  0  # cp/C
 185    1   1   0.000000   -10.159726100    0.970711513    -8.993003802   0  0  0  # cp/C
 100    1   1   0.000000   -9.900964762     2.425553531    -13.864748252  0  0  0  # cp/C
 104    1   1   0.000000   -9.945934922     2.409634915    -11.460987028  0  0  0  # cp/C
 108    1   1   0.000000   -9.984529077     2.375885524    -9.000192510   0  0  0  # cp/C
  95    1   1   0.000000   -9.827886541     3.145963368    -15.031301542  0  0  0  # cp/C
  99    1   1   0.000000   -9.629620903     3.038261898    -12.645791152  0  0  0  # cp/C
 103    1   1   0.000000   -9.668108319     2.991208217    -10.226570037  0  0  0  # cp/C