LAMMPS data file via write_data, version 29 Aug 2024, timestep = 4400000, units = real

2176 atoms
5 atom types
2368 bonds
5 bond types
3776 angles
7 angle types
5632 dihedrals
10 dihedral types
1216 impropers
4 improper types

-2.423034468924744 26.82121446892082 xlo xhi
-4.101665533556245 20.60166553355449 ylo yhi
-15.019980902183525 15.019980902183525 zlo zhi

Atom Type Labels

1 c_0
2 cp
3 hc
4 o_1
5 oc

Bond Type Labels

1 c_0-cp
2 c_0-o_1
3 cp-cp
4 cp-hc
5 cp-oc

Angle Type Labels

1 c_0-cp-cp
2 cp-c_0-cp
3 cp-c_0-o_1
4 cp-cp-cp
5 cp-cp-hc
6 cp-cp-oc
7 cp-oc-cp

Dihedral Type Labels

1 cp-c_0-cp-cp
2 o_1-c_0-cp-cp
3 c_0-cp-cp-cp
4 cp-cp-cp-cp
5 c_0-cp-cp-hc
6 cp-cp-cp-hc
7 hc-cp-cp-hc
8 cp-cp-cp-oc
9 hc-cp-cp-oc
10 cp-cp-oc-cp

Improper Type Labels

1 c_0-cp-cp-cp-nb==3
2 cp-c_0-cp-o_1-nb==3
3 cp-cp-cp-hc-nb==3
4 cp-cp-cp-oc-nb==3

Masses

1 12.01115
2 12.01115
3 1.00797
4 15.9994
5 15.9994

Pair Coeffs # lj/class2/coul/long

1 0.12 3.308
2 0.064 4.01
3 0.02 2.3
4 0.267 3.3
5 0.24 3.535

Bond Coeffs # class2

1 1.489 339.357 -655.724 670.236
2 1.216 823.795 -1878.79 2303.53
3 1.417 470.836 -627.618 1327.63
4 1.0982 372.825 -803.453 894.317
5 1.3768 428.88 -738.235 1114.97

Angle Coeffs # class2

1 108.4 43.9594 -8.3924 -9.3379
2 110.588 34.6214 -7.0939 -7.4032
3 119.3 65.1016 -17.9766 0
4 118.9 61.0226 -34.9931 0
5 117.94 35.1558 -12.4682 0
6 123.42 73.6781 -21.6787 0
7 109.5 60 0 0

BondBond Coeffs

1 0 1.489 1.417
2 0 1.489 1.489
3 0 1.489 1.216
4 68.2856 1.417 1.417
5 1.0795 1.417 1.0982
6 48.4754 1.417 1.3768
7 0 1.3768 1.3768

BondAngle Coeffs

1 0 0 1.489 1.417
2 0 0 1.489 1.489
3 0 0 1.489 1.216
4 28.8708 28.8708 1.417 1.417
5 20.0033 24.2183 1.417 1.0982
6 58.479 107.681 1.417 1.3768
7 0 0 1.3768 1.3768

Dihedral Coeffs # class2

1 0 0 2.5 0 0 0
2 0 0 0.9063 0 0 0
3 0 0 4.6282 0 0 0
4 8.3667 0 1.1932 0 0 0
5 0 0 2.167 0 0 0
6 0 0 3.9661 0 0 0
7 0 0 1.8769 0 0 0
8 0 0 4.8498 0 0 0
9 0 0 1.7234 0 0 0
10 0 0 1.8 0 0 0

AngleAngleTorsion Coeffs

1 0 110.588 108.4
2 0 119.3 108.4
3 0 108.4 118.9
4 0 118.9 118.9
5 0 108.4 117.94
6 -4.8141 118.9 117.94
7 0.3598 117.94 117.94
8 -21.0247 118.9 123.42
9 4.2296 117.94 123.42
10 0 123.42 109.5

EndBondTorsion Coeffs

1 0 0 0 0 0 0 1.489 1.417
2 0 0 0 0 0 0 1.216 1.417
3 0 0 0 0 0 0 1.489 1.417
4 -0.1185 6.3204 0 -0.1185 6.3204 0 1.417 1.417
5 0 0 0 0 0 0 1.489 1.0982
6 0 -6.8958 0 0 -0.4669 0 1.417 1.0982
7 0 -0.689 0 0 -0.689 0 1.0982 1.0982
8 0 0.2655 0 0 4.8905 0 1.417 1.3768
9 0 -1.5867 0 0 4.2641 0 1.0982 1.3768
10 0 0 0 0 0 0 1.417 1.3768

MiddleBondTorsion Coeffs

1 0 0 0 1.489
2 0 0 0 1.489
3 0 0 0 1.417
4 27.5989 -2.312 0 1.417
5 0 0 0 1.417
6 0 -1.1521 0 1.417
7 0 4.8228 0 1.417
8 0 4.8255 0 1.417
9 0 5.5432 0 1.417
10 0 0 0 1.3768

BondBond13 Coeffs

1 0 1.489 1.417
2 0 1.216 1.417
3 0 1.489 1.417
4 53 1.417 1.417
5 0 1.489 1.0982
6 -6.2741 1.417 1.0982
7 -1.7077 1.0982 1.0982
8 -2.2436 1.417 1.3768
9 2.0517 1.0982 1.3768
10 0 1.417 1.3768

AngleTorsion Coeffs

1 0 0 0 0 0 0 110.588 108.4
2 0 0 0 0 0 0 119.3 108.4
3 0 0 0 0 0 0 108.4 118.9
4 1.9767 1.0239 0 1.9767 1.0239 0 118.9 118.9
5 0 0 0 0 0 0 108.4 117.94
6 0 2.5014 0 0 2.7147 0 118.9 117.94
7 0 2.4501 0 0 2.4501 0 117.94 117.94
8 0 10.0155 0 0 1.7404 0 118.9 123.42
9 0 1.8729 0 0 2.5706 0 117.94 123.42
10 0 0 0 0 0 0 123.42 109.5

Improper Coeffs # class2

1 10 0
2 38.7949 0
3 4.8912 0
4 13.0421 0

AngleAngle Coeffs

1 0 0 0 108.4 118.9 108.4
2 0 0 0 110.588 119.3 119.3
3 0 0 0 118.9 117.94 117.94
4 0 0 0 118.9 123.42 123.42

Atoms # full

13 1 2 0.0265 -0.4744169844516035 -3.201924017982509 -12.224586890091038 0 0 0
14 1 2 -0.1268 -1.071803304125996 -1.9034118695022624 -12.040572045847851 0 0 0
15 1 2 -0.1268 -0.7732661556824445 -1.2328894100103631 -10.878797544482996 0 0 0
16 1 2 0 -0.3351520265223007 -1.8753114786914362 -9.697468757302676 0 0 0
17 1 2 -0.1268 0.07563497241038197 -3.2162802077977775 -9.873262430620738 0 0 0
45 1 3 0.1268 0.8472806156996344 -1.8508761357789618 -14.050208498733243 0 0 0
69 2 5 -0.053 -0.478691220052613 2.2531813915407604 -13.045280919258996 0 0 0
120 2 3 0.1268 0.36748771823674664 1.2574721680948153 -10.800596001999233 0 0 0
81 2 2 0.0265 -0.5077084206939322 2.9400042075737653 -11.83764594379546 0 0 0
86 2 2 -0.1268 -0.11063944092265121 2.283172321608056 -10.71158233227867 0 0 0
85 2 2 -0.1268 -0.1792742914358305 2.8584129462951537 -9.484517570106952 0 0 0
279 5 2 0.0265 3.0988226532673204 0.30799858953928627 -9.715423034244754 0 0 0
280 5 2 -0.1268 3.3995296503606705 1.6284054423863434 -9.983283834434713 0 0 0
284 5 2 -0.1268 2.570011560729087 -0.4918700626642054 -10.73854658753887 0 0 0
281 5 2 -0.1268 3.152483378598747 2.1686928622614507 -11.206670467408362 0 0 1
320 5 3 0.1268 2.5295292869220676 -1.5806185155823202 -10.640356873280616 0 0 0
119 2 3 0.1268 -0.013259302725900035 2.204638779853039 -8.615842601761594 0 0 0
283 5 2 -0.1268 2.4656193171253165 -0.011273714405866997 -12.016695185198998 0 0 1
282 5 2 0.0265 2.7885599771196414 1.381740842381249 -12.278666521611065 0 0 1
319 5 3 0.1268 2.1750407139570065 -0.603406873464345 -12.887226039840186 0 0 1
276 5 5 -0.053 2.659054837693742 1.9891834468708858 -13.553577546236173 0 0 1
273 5 5 -0.053 3.2818703636965196 -0.22754676639795246 -8.487172491209872 0 0 0
50 1 3 0.1268 -1.167875879787758 -0.21039425664246325 -10.721868208855103 0 0 0
49 1 3 0.1268 -1.5456409622808187 -1.4380004523981516 -12.895114501800723 0 0 0
339 5 3 0.1268 3.5968887353735592 -0.5679144968138723 -13.949256109911714 0 0 1
317 5 3 0.1268 3.7831026830940564 2.340843690063129 -9.20700400808902 0 0 0
318 5 3 0.1268 3.3802417243235032 3.280722161164756 -11.468396502041491 0 0 1
19 1 1 0.3964 -0.3335150770935025 -1.1601090239831362 -8.345446692278866 0 0 0
75 2 2 0.0265 -0.38456616418122413 2.92472412296574 -14.247872470423165 0 0 0
526 8 3 0.1268 4.1073832287277146 -3.4652094402185813 -11.075986817946296 0 1 0
2 1 4 -0.3964 -0.47976161711648535 0.032237337517153186 -8.35006218985564 0 0 0
478 8 4 -0.3964 3.249005751005787 -3.0811020329768466 -8.657601329283551 0 1 0
314 5 2 0.0265 2.8262047040316807 1.2365560204576092 -14.765211610788175 0 0 1
7 1 2 0.0265 -0.4770464426035077 -3.3559275124584893 -14.647942885357335 0 0 0
51 1 3 0.1268 0.6249023920363448 -3.735350178178011 -9.138011992543843 0 0 0
18 1 2 -0.1268 0.11883731587213875 -3.8261592078279865 -11.11386833949371 0 0 0
315 5 2 -0.1268 3.249594634105713 -0.10635755495973953 -14.857170885938515 0 0 1
1 1 5 -0.053 -0.4491562075796256 -3.921956767996992 -13.409416230367864 0 0 0
321 5 3 0.1268 2.2210677460872237 2.2717042411622455 -7.811978372694637 0 0 0
53 1 3 0.1268 -0.737564707120484 -3.8426329714932432 -7.855425415701756 0 0 0
8 1 2 -0.1268 0.30937896314882973 -2.2086009273479723 -14.916846192818644 0 0 0
593 9 3 0.1268 5.705568769762433 -1.570952021526368 -13.135196998835093 0 0 0
594 9 3 0.1268 5.647233183130204 -0.6127687648948026 -10.768839825624697 0 0 0
557 9 2 0.0265 6.682295629658125 -3.4284079898430777 -12.328742662273596 0 0 0
558 9 2 -0.1268 6.144979895593124 -2.1255214774209343 -12.207458956060567 0 0 0
559 9 2 -0.1268 6.097473625963852 -1.5754711052369692 -10.91519516085386 0 0 0
560 9 2 0 6.545814068528898 -2.289265359103479 -9.788047131990329 0 0 0
561 9 2 -0.1268 7.123497750288012 -3.527121657897431 -9.907521326857527 0 0 0
664 10 3 0.1268 7.527782103798945 0.7524296468081744 -11.480770605159206 0 0 0
663 10 3 0.1268 7.716856090811648 1.993203261135874 -9.457345916244659 0 0 0
630 10 2 -0.1268 7.087793455539014 1.7903183941406127 -11.447560360150732 0 0 0
629 10 2 -0.1268 7.1370322105849535 2.4501342253118343 -10.248471024667545 0 0 0
817 13 5 -0.053 10.568658341666536 -0.922021863326616 -13.192875437893775 0 0 0
829 13 2 0.0265 10.568109258143789 -0.24286830038257445 -12.027485623961438 0 0 0
830 13 2 -0.1268 11.22038185047208 1.0026071872589277 -11.885664717952958 0 0 0
831 13 2 -0.1268 11.245637778817771 1.6198551509364858 -10.642207345258763 0 0 0
832 13 2 0 10.54040160994115 1.0269829868926115 -9.592132193950238 0 0 0
833 13 2 -0.1268 9.814877408814068 -0.17656997430909982 -9.723451927305717 0 0 0
834 13 2 -0.1268 9.915368941157269 -0.8452088606538046 -10.948004149395116 0 0 0
868 13 3 0.1268 9.538378574912626 -1.9156967154697075 -11.080669397225984 0 0 0
625 10 2 0.0265 6.655439357030627 2.437566078101151 -12.592851198236538 0 0 0
867 13 3 0.1268 9.27753439251589 -0.7396111195104433 -8.950800755911388 0 0 0
589 9 3 0.1268 7.950601390006158 -1.7975929560339745 -14.17656910484218 0 0 0
613 10 5 -0.053 6.593246988510479 1.8756814768826162 -13.83536413981676 0 0 0
861 13 3 0.1268 9.332289406431888 1.4456719745424103 -13.688766532350188 0 0 0
546 9 4 -0.3964 6.67611472029893 -0.3305899602611482 -8.467407743493816 0 0 0
563 9 1 0.3964 6.575037581872335 -1.5197450732953541 -8.433342064855728 0 0 0
835 13 1 0.3964 10.50503742475528 1.762700522692275 -8.248069566353063 0 0 0
818 13 4 -0.3964 10.310589770393662 2.947523605227068 -8.2310062684848 0 0 0
865 13 3 0.1268 11.627823294017611 1.516241996863509 -12.803792025046139 0 0 0
866 13 3 0.1268 11.71590939784592 2.580985571512831 -10.417693353356702 0 0 0
595 9 3 0.1268 7.490674696693411 -4.034630866063962 -9.02395736309495 0 0 0
551 9 2 0.0265 6.7286729006569175 -3.539408225193593 -14.725138388383371 0 0 0
665 10 3 0.1268 6.093387042884061 1.9264098094534843 -8.086960906608333 0 0 0
1066 16 3 0.1268 11.408510790271231 -3.482709426231994 -10.890898853810604 0 1 1
552 9 2 -0.1268 7.372760188710867 -2.2994061037543956 -14.963487920042168 0 0 0
824 13 2 -0.1268 9.769636016001476 0.9489104753025179 -14.553074731067644 0 0 0
823 13 2 0.0265 10.478487362924126 -0.21940759470406324 -14.43497657414763 0 0 0
936 14 3 0.1268 9.670480304727285 4.096001305882476 -10.869057408798195 0 0 0
626 10 2 -0.1268 6.100862760808926 3.7108762852449084 -12.495440124253111 0 0 0
628 10 2 0 6.581336286313892 3.7326489453537093 -10.136026734902185 0 0 0
619 10 2 0.0265 6.6169899003732 2.70248658296852 -14.921780339385641 0 0 0
76 2 2 -0.1268 0.17223455556206524 4.1645384442326225 -14.403573142818692 0 0 0
82 2 2 -0.1268 -0.9519792435125283 4.285048843365187 -11.755599872512196 0 0 0
84 2 2 0 -0.6475106856822359 4.171039076369933 -9.319557025036998 0 0 0
113 2 3 0.1268 0.5555945868675431 4.624926632173803 -13.536951565350478 0 0 0
388 6 3 0.1268 1.9677430816695498 4.611116947437418 -10.615829567871305 0 0 0
383 6 2 -0.1268 3.7500191654212935 6.366093763518196 -14.516547609687024 0 0 1
144 3 2 -0.1268 0.27882705024612564 10.239388092855632 -14.279995532958464 0 0 0
83 2 2 -0.1268 -1.1180853125529906 4.877460295529376 -10.499370151839127 0 0 0
347 6 2 0.0265 2.886677692893082 6.27388371985735 -9.491388977458715 0 0 0
352 6 2 -0.1268 2.3979249904868087 5.70066917070738 -10.686454168530783 0 0 0
188 3 3 0.1268 -0.21161104699220923 7.351405322987901 -10.513585327765078 0 0 0
348 6 2 -0.1268 3.568935035589381 7.532515574310638 -9.577942586311202 0 0 0
181 3 3 0.1268 0.8006388653370538 10.720640195585423 -13.492547215713287 0 0 0
154 3 2 -0.1268 -0.2700043492366717 8.441721517937177 -10.450652671180016 0 0 0
153 3 2 -0.1268 -0.42895139166910856 9.054609566591171 -9.200770545158552 0 0 0
152 3 2 0 -0.7249973543461377 10.4144105006626 -9.18213072176038 0 0 0
151 3 2 -0.1268 -1.0979132508758156 11.086755965222844 -10.38987926386508 0 0 0
150 3 2 -0.1268 -0.9892943618475618 10.456073096641676 -11.586366859163 0 0 0
149 3 2 0.0265 -0.5133502336964724 9.16598957429321 -11.644165779538797 0 0 0
137 3 5 -0.053 -0.5608360379355277 8.458802621470415 -12.838496480044263 0 0 0
409 7 5 -0.053 3.088092633626065 11.54354545566763 -13.195183067875247 0 0 0
426 7 2 -0.1268 2.648765075169364 11.530331342531458 -10.815025691606692 0 0 0
460 7 3 0.1268 2.39094153348966 10.463250567906284 -10.896856288455435 0 0 0
349 6 2 -0.1268 3.753032439329022 8.191530275704826 -10.769524315141986 0 0 1
351 6 2 -0.1268 2.3621699069235857 6.444716974980173 -11.829642348164665 0 0 1
350 6 2 0.0265 3.1295300812054947 7.68028185354984 -11.921857121041679 0 0 1
187 3 3 0.1268 -0.14205070579659784 8.560564311966704 -8.301373458160679 0 0 0
387 6 3 0.1268 1.7952252128352022 6.1705275428592525 -12.701847122995169 0 0 1
344 6 5 -0.053 3.373227510656278 8.357300481358722 -13.14607561933337 0 0 1
407 6 3 0.1268 4.063623420455423 5.796674806595405 -13.66904028479149 0 0 1
118 2 3 0.1268 -1.490296092887606 5.904877727228435 -10.471794097203393 0 0 0
459 7 3 0.1268 2.1845281451540313 11.575791125757934 -8.738502581535306 0 0 0
185 3 3 0.1268 -1.2441313062512 11.107037841991636 -12.533664678530657 0 0 0
117 2 3 0.1268 -1.327697825766267 4.794164574052418 -12.689367326802312 0 0 0
87 2 1 0.3964 -0.5884893251498247 4.973045185645228 -8.042344705939115 0 0 0
143 3 2 0.0265 -0.3672837881584936 9.066367975566017 -14.047464369608258 0 0 0
385 6 3 0.1268 4.0586770687358245 7.93630789267409 -8.623758062747303 0 0 0
341 6 5 -0.053 2.78626578885563 5.5906515844992075 -8.308619451779768 0 0 0
70 2 4 -0.3964 -0.539729515217493 6.189392279980398 -8.144515140847894 0 0 0
382 6 2 0.0265 3.3084504743491987 7.695704138460778 -14.375996241924593 0 0 1
155 3 1 0.3964 -0.6297273187348449 11.251375175655085 -7.863549761545665 0 0 0
386 6 3 0.1268 4.393381444603166 9.024887473039348 -10.875611124890622 0 0 1
389 6 3 0.1268 2.204895200870216 8.134082872009113 -7.762911611302715 0 0 0
186 3 3 0.1268 -1.3934865421420775 12.138612049541466 -10.414993322114274 0 0 0
425 7 2 -0.1268 2.7336385853205005 12.125677354341862 -9.532106500202495 0 0 0
415 7 2 0.0265 2.9982006672696064 12.22474557460489 -14.364007281647813 0 0 0
421 7 2 0.0265 3.0375301983137195 12.224034895269194 -12.004899910409808 0 0 0
184 3 3 0.1268 -1.3107147676574658 7.427184833789418 -14.970748281069165 0 0 0
657 10 3 0.1268 7.927477038548897 4.2379492570354635 -14.206589663716684 0 0 0
661 10 3 0.1268 5.519108169442476 4.201891714246482 -13.33599442628024 0 0 0
729 11 3 0.1268 5.798817582760702 10.839000906822045 -12.806689679735237 0 0 0
627 10 2 -0.1268 6.102691423477241 4.366842717209494 -11.282958234114876 0 0 0
662 10 3 0.1268 5.7021900784721495 5.400719005038885 -11.278002046971645 0 0 0
885 14 5 -0.053 10.398417365347193 5.051950027204761 -13.263130231153472 0 0 0
897 14 2 0.0265 10.41796089378326 5.7536772415647786 -12.063889512306112 0 0 0
901 14 2 -0.1268 9.929963392350118 5.829025388920465 -9.708090091787545 0 0 0
902 14 2 -0.1268 10.035258340432788 5.159660771271586 -10.89962338054918 0 0 0
732 11 3 0.1268 7.921767432176962 7.536448161248746 -10.847754843487271 0 0 0
898 14 2 -0.1268 10.812280273558885 7.072569458239959 -11.972967819788094 0 0 0
899 14 2 -0.1268 10.917660310734066 7.8079472527237 -10.77406590154899 0 0 0
900 14 2 0 10.404659804591645 7.186702947029216 -9.581341781179699 0 0 0
698 11 2 -0.1268 7.451633798479577 8.505784011694821 -10.893628954536457 0 0 0
697 11 2 -0.1268 7.383530650096912 9.217052432051938 -9.737261499831813 0 0 0
696 11 2 0 6.83067425012913 10.481027913523818 -9.572568693000623 0 0 0
694 11 2 -0.1268 6.361075769964156 10.40566473731998 -11.947110321214419 0 0 0
693 11 2 0.0265 6.959199336530995 9.138018977324558 -12.062909264139925 0 0 0
681 11 5 -0.053 6.888429624019022 8.421105026388778 -13.245119715743972 0 0 0
1000 15 3 0.1268 9.408835158097853 10.725957253075716 -10.185823496416369 0 0 0
695 11 2 -0.1268 6.24530290256315 11.066569205200524 -10.74335051401211 0 0 0
725 11 3 0.1268 7.858912293537024 10.971029950447592 -13.630615682189395 0 0 0
935 14 3 0.1268 9.487278378664948 5.263831077936182 -8.883045846635497 0 0 0
731 11 3 0.1268 7.883841219327545 8.689015355509648 -8.912651946404587 0 0 0
929 14 3 0.1268 9.311306511631575 7.5380732741827075 -13.815344036869707 0 0 0
631 10 1 0.3964 6.3784590962769325 4.564188968062284 -8.85961406331161 0 0 0
614 10 4 -0.3964 6.178511867854139 5.767182004103855 -8.869343957268248 0 0 0
699 11 1 0.3964 6.896540956711794 11.123775083540917 -8.234336306130558 0 0 0
953 15 5 -0.053 10.540647909715883 11.786477710805391 -8.309854113225658 0 0 0
903 14 1 0.3964 10.383804859171144 7.93828969846666 -8.25784169065562 0 0 0
886 14 4 -0.3964 10.273863328631592 9.101215988624979 -8.185562271336515 0 0 0
964 15 2 -0.1268 9.738123507990936 11.753616695036502 -10.45026696515725 0 0 0
934 14 3 0.1268 11.075739169431445 8.90734037445315 -10.785768135530482 0 0 0
687 11 2 0.0265 7.033990032879933 9.038769339509487 -14.439025520567807 0 0 0
933 14 3 0.1268 11.225626818791088 7.507357165357076 -12.916468102481769 0 0 0
688 11 2 -0.1268 7.477722555235715 10.388038090358116 -14.529091901220198 0 0 0
937 14 3 0.1268 11.08385860008634 5.365586603304985 -7.710950422322528 0 0 0
733 11 3 0.1268 6.159243431996405 8.403064371347897 -7.705895802249747 0 0 0
1019 15 3 0.1268 11.088466854678728 11.74410190314498 -13.634512968914809 0 0 1
999 15 3 0.1268 9.016093302230585 11.668759889366497 -12.475170360611607 0 0 1
730 11 3 0.1268 5.69627716293463 12.03703040682971 -10.640132758361926 0 0 0
892 14 2 -0.1268 9.76582287986743 6.991064654298304 -14.678518124018494 0 0 0
891 14 2 0.0265 10.295624418334667 5.686604518110418 -14.488678936636123 0 0 0
682 11 4 -0.3964 7.076840342923505 12.350506869899915 -8.130879177885902 0 0 0
995 15 2 -0.1268 10.685369873822257 12.298572027541399 -14.499976567961943 0 0 1
963 15 2 -0.1268 9.557781684305372 12.279333657316572 -11.728434133351959 0 0 1
253 4 3 0.1268 -1.6963509356262279 17.58342979283404 -12.746996466388433 0 0 0
138 3 4 -0.3964 -0.4863726071509862 12.476373637156959 -8.016551948346553 0 0 0
484 8 2 -0.1268 2.373788492222962 19.394820751773807 -14.763463471098103 0 0 0
521 8 3 0.1268 1.986113356305328 19.825450674622395 -13.809329179684351 0 0 0
254 4 3 0.1268 -1.0020546649373205 18.534288367796364 -10.536051644397713 0 0 0
212 4 2 -0.1268 -0.2961089394306855 16.62721941739626 -14.714731136500411 0 0 0
491 8 2 -0.1268 3.489030277678655 20.256145708578856 -11.045666688683754 0 0 0
525 8 3 0.1268 3.7960570901568857 20.0177453602587 -13.087749218465408 0 0 0
52 1 3 0.1268 0.48056407090832653 19.825104006393055 -11.178423677009395 0 -1 0
256 4 3 0.1268 -0.7092957373751609 13.727686371414483 -11.098058921401512 0 0 0
205 4 5 -0.053 -1.1450335869209967 14.83970210444762 -13.306399789010287 0 0 0
217 4 2 0.0265 -0.9940272088277304 15.599840988011321 -12.114771855931565 0 0 0
219 4 2 -0.1268 -0.9725383762172428 17.486116833501328 -10.696598807014258 0 0 0
220 4 2 0 -0.5994495146867207 16.706940066585737 -9.626578677260063 0 0 0
221 4 2 -0.1268 -0.3775674140733565 15.365507750251668 -9.718179796621461 0 0 0
222 4 2 -0.1268 -0.6565789408851286 14.80931552418758 -10.974150763176326 0 0 0
528 8 3 0.1268 1.8084616465942762 16.69691341634067 -11.141985465903623 0 0 0
422 7 2 -0.1268 3.3114471703545796 13.543176638144336 -11.85338918725794 0 0 0
423 7 2 -0.1268 3.293377931394348 14.179294190879661 -10.632842920066643 0 0 0
424 7 2 0 3.0313434336671428 13.488294831764405 -9.419448319385236 0 0 0
457 7 3 0.1268 3.5499165242999897 14.230223279179645 -12.728398092411867 0 0 0
489 8 2 0.0265 2.9350609390833418 18.18561289986073 -12.273532903432875 0 0 0
490 8 2 -0.1268 3.420189026519048 19.544696223304406 -12.212611405677423 0 0 0
492 8 2 0 3.0950606395487146 19.638991864949368 -9.824192165668563 0 0 0
493 8 2 -0.1268 2.5091908148623645 18.343702748378035 -9.912866151735951 0 0 0
494 8 2 -0.1268 2.4105794118232664 17.659297341017258 -11.108604107422638 0 0 0
218 4 2 -0.1268 -1.2811765765147411 16.93707943414897 -11.956627219406602 0 0 0
477 8 5 -0.053 2.9989322994822523 17.419016820579714 -13.387237252116012 0 0 0
255 4 3 0.1268 0.0027077418985861357 14.722474985960071 -8.964171734668938 0 0 0
527 8 3 0.1268 2.024026966397437 17.899747760627633 -9.048349539794053 0 0 0
249 4 3 0.1268 0.16530740967487167 17.15493843133634 -13.780450560517806 0 0 0
458 7 3 0.1268 3.5775662201211373 15.223104300486225 -10.53106554964975 0 0 0
223 4 1 0.3964 -0.13402597184871468 17.41933339916411 -8.299375224415368 0 0 0
453 7 3 0.1268 1.7747867456227784 13.822888254612186 -13.64281423563899 0 0 0
483 8 2 0.0265 2.8957494405823105 18.090061327249998 -14.63950173048112 0 0 0
410 7 4 -0.3964 2.788864114921771 15.460959899642587 -8.278385039835467 0 0 0
427 7 1 0.3964 2.938966145357295 14.267179620985603 -8.143666431111448 0 0 0
206 4 4 -0.3964 0.1758755750534653 18.592713673512826 -8.320910586278854 0 0 0
495 8 1 0.3964 3.224105956242255 20.42264101819945 -8.51873335247851 0 0 0
211 4 2 0.0265 -1.0256803602174822 15.447974368374686 -14.518651549353214 0 0 0
416 7 2 -0.1268 2.26454087929429 13.409856930308726 -14.536371481414537 0 0 0
257 4 3 0.1268 -1.5217544302322645 14.99589239954888 -7.673644868266444 0 0 0
529 8 3 0.1268 3.88032384110939 17.895343980144325 -8.03279365113767 0 0 0
545 9 5 -0.053 6.686570815129956 20.525500013694963 -13.510801055797458 0 -1 0
562 9 2 -0.1268 7.059097934518638 20.56417951943949 -11.131064133577453 0 -1 0
1024 16 5 -0.053 10.35706549448193 20.321658121841494 -13.125661891259611 0 0 1
1065 16 3 0.1268 11.770978623611155 19.95299752542001 -8.889002145390531 0 0 0
1029 16 2 -0.1268 10.903598333384632 20.234054313325373 -10.875047081231278 0 0 1
756 12 2 -0.1268 7.049896512004642 16.426432464168876 -13.992206798335623 0 0 0
959 15 2 0.0265 10.476806514172816 12.435535582926368 -9.493615680092166 0 0 0
998 15 3 0.1268 11.14277079011062 15.209626824461955 -11.242413547747859 0 0 1
997 15 3 0.1268 11.588301322249524 14.411291282749579 -9.158460758833442 0 0 0
994 15 2 0.0265 10.087651921799134 13.533129835931769 -14.425973739414461 0 0 1
798 12 3 0.1268 5.52896609261861 18.116310252922183 -9.995731817430997 0 0 0
596 9 3 0.1268 7.4301579885610565 19.543259764982665 -11.20821573142183 0 -1 0
1030 16 2 0.0265 10.335782470297856 19.662442890721778 -11.953482367702266 0 0 1
749 12 5 -0.053 6.29075067455657 14.495544555202374 -12.821063868860552 0 0 0
1067 16 3 0.1268 9.233455471197823 17.941482504479303 -12.656981185948915 0 0 1
1031 16 2 -0.1268 9.814916725931807 18.347394530256288 -11.807410377959648 0 0 1
961 15 2 -0.1268 10.798488462078932 14.21777733844347 -11.080764771899469 0 0 1
800 12 3 0.1268 7.354513237150851 13.443690292188775 -10.5426019419526 0 0 0
799 12 3 0.1268 7.604296943478452 14.623621543499508 -8.508691076612724 0 0 0
761 12 2 0.0265 6.374421914094729 15.120610998917778 -11.580262689245794 0 0 0
762 12 2 -0.1268 5.932104771292222 16.47521400667874 -11.355819556999135 0 0 0
763 12 2 -0.1268 6.046802991621938 17.127634362315938 -10.150270056259668 0 0 0
764 12 2 0 6.520233438628708 16.432297052219482 -9.052306236266478 0 0 0
765 12 2 -0.1268 7.066485199728197 15.157411307205303 -9.294917934536503 0 0 0
766 12 2 -0.1268 6.997518395520274 14.486842333574307 -10.494392112733564 0 0 0
1068 16 3 0.1268 9.876133621222126 16.594267071223648 -10.486358604234269 0 0 0
960 15 2 -0.1268 10.996221359259499 13.692951143801897 -9.856271137568868 0 0 0
1021 16 5 -0.053 10.76816440283862 17.484491432517956 -8.407921231017209 0 0 0
1027 16 2 0.0265 10.662700325576285 18.26556722562934 -9.501454223449631 0 0 0
1028 16 2 -0.1268 11.108482729305944 19.5930944189519 -9.685108181471664 0 0 0
1032 16 2 -0.1268 10.093087724061922 17.6302648583196 -10.60987171263383 0 0 0
962 15 2 0.0265 10.12161251225779 13.501862121128278 -12.058531651992762 0 0 1
797 12 3 0.1268 5.605406915196157 16.9764986407681 -12.265181432851307 0 0 0
793 12 3 0.1268 7.515490183514682 16.784606271991947 -13.064643368787229 0 0 0
956 15 5 -0.053 9.872052463016734 14.17358149133292 -13.213578997829192 0 0 1
755 12 2 0.0265 6.332053777570744 15.257880116441088 -13.942137841036727 0 0 0
767 12 1 0.3964 6.71109263448365 17.127642279669473 -7.691918097499931 0 0 0
1087 16 3 0.1268 11.412957935330844 17.866883966915402 -13.595737165235853 0 0 1
750 12 4 -0.3964 6.783616886298416 18.33630969447789 -7.738015886919745 0 0 0
1001 15 3 0.1268 9.790699098101054 14.303212734404143 -7.8279899408033655 0 0 0
1062 16 2 0.0265 10.38680447452937 19.600193240797296 -14.324958602145689 0 0 1
1063 16 2 -0.1268 11.00541551180523 18.33596149639343 -14.441667867642424 0 0 1
1069 16 3 0.1268 9.471499471077683 19.820328193800215 -7.696515420113786 0 0 0
597 9 3 0.1268 5.860513571937098 20.571401246076697 -7.700864578742 0 -1 0
121 2 3 0.1268 -1.4250338529252664 2.318085176210305 -7.192184947915148 0 0 0
535 8 3 0.1268 4.328318761476132 -3.4595898490154102 -0.5897560944812117 0 1 0
326 5 3 0.1268 2.5874996613258885 -1.8709165824874754 -0.642030289563106 0 0 0
294 5 2 -0.1268 2.8190023756845246 -0.8357941591241236 -0.7025233452505013 0 0 0
28 1 2 -0.1268 -0.945824820433045 -0.8985536068060012 -0.7002844695461992 0 0 0
285 5 2 0.0265 3.1878943076944264 0.38655201740472744 -7.279125337143502 0 0 0
20 1 2 0 -0.1578173111028045 -1.8961282549688296 -7.041255230700353 0 0 0
128 2 3 0.1268 0.7724965702124855 1.377829380429331 -0.5684370979522999 0 0 0
286 5 2 -0.1268 2.5874982947687775 1.6060787711276836 -7.017330992558984 0 0 0
122 2 3 0.1268 -1.1028373299259429 1.330266335687182 -5.008187806446806 0 0 0
287 5 2 -0.1268 2.6148025604611567 2.1808772318269716 -5.765658975765994 0 0 0
290 5 2 -0.1268 3.74647962944565 -0.31280863339587617 -6.203290580707842 0 0 0
322 5 3 0.1268 2.084217316471504 3.1414611849320195 -5.633392160955246 0 0 0
324 5 3 0.1268 4.241423222140395 -1.2394628169214266 -6.36009978022847 0 0 0
288 5 2 0 3.078953163681807 1.4380381639586135 -4.659095649676058 0 0 0
289 5 2 -0.1268 3.6792339101646965 0.2355695606077246 -4.9379507856384475 0 0 0
323 5 3 0.1268 4.100793178042536 -0.29282855825756116 -4.144518610335977 0 0 0
94 2 2 0.0265 -0.4425280888358225 2.9568614192723803 -1.6809790684550343 0 0 0
91 2 2 0.0265 -0.42076776211488154 3.1316099698643445 -4.063733728515189 0 0 0
90 2 2 -0.1268 -0.9167861542471116 2.425487319262765 -5.188088460660765 0 0 0
89 2 2 -0.1268 -0.97697578647358 2.977451299066095 -6.4030951926269655 0 0 0
71 2 5 -0.053 -0.24110998262196848 2.3747855029061755 -2.9323467268799632 0 0 0
56 1 3 0.1268 0.4182820875896156 -0.10673804745167681 -6.084219832305049 0 0 0
55 1 3 0.1268 0.35889217860617517 -1.0619708167247368 -3.710636209561308 0 0 0
27 1 2 -0.1268 -0.9431432185006456 -1.5351314326953802 -1.9323343124114132 0 0 0
26 1 2 0.0265 -0.4113274572729937 -2.842933067408774 -2.0326623185479047 0 0 0
25 1 2 -0.1268 0.2570320971862219 -1.1884870956893994 -5.898486661318909 0 0 0
24 1 2 -0.1268 0.182198009188824 -1.712807801355789 -4.629991655802421 0 0 0
23 1 2 0.0265 -0.3134904847295008 -3.0360309256583617 -4.496952338491967 0 0 0
21 1 2 -0.1268 -0.4952410184636631 -3.2691673808915915 -6.94236874925806 0 0 0
291 5 1 0.3964 3.1863827212266687 1.9977670853641394 -3.3079942843417935 0 0 0
292 5 2 0 3.214307844868566 1.137765779514277 -2.0584795653827275 0 0 0
293 5 2 -0.1268 2.83329239373956 -0.2456691564089417 -1.9389229241658708 0 0 0
325 5 3 0.1268 2.3892254165247877 -0.773273861326937 -2.7453101121251695 0 0 0
274 5 4 -0.3964 3.1506933166943805 3.2010983098480725 -3.133184730654772 0 0 0
532 8 3 0.1268 2.567545935990794 -3.225200649049359 -6.064949776050142 0 1 0
297 5 2 -0.1268 3.7523448647443987 1.7722138785137709 -0.8568377000016536 0 0 0
99 2 2 -0.1268 0.0981472761601383 2.295198078425882 -0.5008447343179316 0 0 0
328 5 3 0.1268 4.211804680257987 2.755891294598439 -0.9497313394073981 0 0 0
3 1 5 -0.053 -0.4989034055007744 -3.604712979985923 -3.267050479582956 0 0 0
22 1 2 -0.1268 -0.5062802081280466 -3.854881255862907 -5.678680925181201 0 0 0
31 1 2 -0.1268 0.209063066568278 -3.3525097858869017 -0.876050761208452 0 0 0
57 1 3 0.1268 -1.4754238715264847 -1.0903330630587678 -2.7912514807860482 0 0 0
58 1 3 0.1268 -1.4057807285235773 0.09361672285210076 -0.6464981393456455 0 0 0
95 2 2 -0.1268 -1.0453702423725415 4.130771159802233 -1.5347764016564138 0 0 0
869 13 3 0.1268 11.240825751699225 -0.9632455732739538 -7.4631284520519 0 0 0
836 13 2 0 10.541640814196938 1.0846252888032186 -6.938558731340098 0 0 0
633 10 2 -0.1268 6.354750075757947 2.591340591772079 -7.2852928917863125 0 0 0
564 9 2 0 6.637708241736069 -2.2532466718045256 -7.1355663003029575 0 0 0
843 13 2 -0.1268 9.505131828370722 -0.3630203663294398 -0.793092615522685 0 0 0
873 13 3 0.1268 8.942685537677747 -1.2951462783104106 -0.9699006502081247 0 0 0
837 13 2 -0.1268 10.917258367905546 -0.2955689281492524 -6.664944848802705 0 0 0
1076 16 3 0.1268 11.49853024928757 -3.5927382825574643 -0.9092578373250451 0 1 0
565 9 2 -0.1268 6.288806408312196 -3.543356082326346 -6.888220163243128 0 0 0
601 9 3 0.1268 5.770959602753383 -1.8725375307399004 -2.8078046438116484 0 0 0
870 13 3 0.1268 11.4704687264462 -1.569809449248575 -5.051736402530047 0 0 0
672 10 3 0.1268 7.728041250086715 1.3694540396939816 -1.631667273750189 0 0 0
666 10 3 0.1268 6.141820842287656 0.940305625749148 -5.876792838240965 0 0 0
634 10 2 -0.1268 6.347257469903759 2.009688365983595 -6.019503790377737 0 0 0
569 9 2 -0.1268 7.189802749834493 -1.598137777775824 -6.053215796616808 0 0 0
600 9 3 0.1268 7.576556264660438 -0.5418545538072115 -6.2990678228938535 0 0 0
847 13 2 -0.1268 10.833916008476532 1.4885749992863166 -1.6350852615414198 0 0 0
871 13 3 0.1268 9.336771701184489 2.1407184006067466 -3.9062618646063267 0 0 0
638 10 2 0.0265 6.620727028434212 2.9282813872751277 -2.4817570129077673 0 0 0
635 10 2 0.0265 6.6470486192527325 2.8597155358679176 -4.908595077823525 0 0 0
615 10 5 -0.053 6.618211323411728 2.2149908468880026 -3.6952687810683322 0 0 0
599 9 3 0.1268 8.030136468880508 -1.6282040772514907 -4.034655908294813 0 0 0
571 9 2 -0.1268 6.440091490157995 -2.3055695972032018 -2.0445977895029372 0 0 0
570 9 2 0.0265 7.186255769574911 -3.4789257007957834 -2.2075221968578305 0 0 0
568 9 2 -0.1268 7.473724466060512 -2.1209661523725467 -4.817378446381216 0 0 0
567 9 2 0.0265 7.058743507286081 -3.4090463585870525 -4.63676316041334 0 0 0
819 13 5 -0.053 10.328558546953829 -0.4172765260244362 -3.113955045725204 0 0 0
838 13 2 -0.1268 10.94912378284027 -0.6147321965122452 -5.3439973102570875 0 0 0
839 13 2 0.0265 10.377000451779095 0.12535315255688406 -4.373412939641268 0 0 0