LAMMPS data file via write_data, version 29 Aug 2024, timestep = 1000000, units = real

2176 atoms
5 atom types
2368 bonds
5 bond types
3776 angles
7 angle types
5632 dihedrals
10 dihedral types
1216 impropers
4 improper types

-2.1383094857795033 26.5364894857808 xlo xhi
-4.063242510362878 20.56324251036532 ylo yhi
-15.037374396778572 15.037374396778572 zlo zhi

Atom Type Labels

1 c_0
2 cp
3 hc
4 o_1
5 oc

Bond Type Labels

1 c_0-cp
2 c_0-o_1
3 cp-cp
4 cp-hc
5 cp-oc

Angle Type Labels

1 c_0-cp-cp
2 cp-c_0-cp
3 cp-c_0-o_1
4 cp-cp-cp
5 cp-cp-hc
6 cp-cp-oc
7 cp-oc-cp

Dihedral Type Labels

1 cp-c_0-cp-cp
2 o_1-c_0-cp-cp
3 c_0-cp-cp-cp
4 cp-cp-cp-cp
5 c_0-cp-cp-hc
6 cp-cp-cp-hc
7 hc-cp-cp-hc
8 cp-cp-cp-oc
9 hc-cp-cp-oc
10 cp-cp-oc-cp

Improper Type Labels

1 c_0-cp-cp-cp-nb==3
2 cp-c_0-cp-o_1-nb==3
3 cp-cp-cp-hc-nb==3
4 cp-cp-cp-oc-nb==3

Masses

1 12.01115
2 12.01115
3 1.00797
4 15.9994
5 15.9994

Pair Coeffs # lj/class2/coul/long

1 0.12 3.308
2 0.064 4.01
3 0.02 2.3
4 0.267 3.3
5 0.24 3.535

Bond Coeffs # morse

1 82.6961 2.1 1.489
2 190.966 2.2 1.216
3 150 1.9 1.417
4 98.2315 2.1 1.0982
5 85.5641 2.3 1.3768

Angle Coeffs # class2xe

1 108.4 43.9594 -8.3924 -9.3379
2 110.588 34.6214 -7.0939 -7.4032
3 119.3 65.1016 -17.9766 0
4 118.9 61.0226 -34.9931 0
5 117.94 35.1558 -12.4682 0
6 123.42 73.6781 -21.6787 0
7 109.5 60 0 0

BondBond Coeffs

1 116.348 0 1.489 1.417
2 82.6961 0 1.489 1.489
3 136.831 0 1.489 1.216
4 150 0.477094 1.417 1.417
5 124.116 0.0659451 1.417 1.0982
6 117.782 0.453635 1.417 1.3768
7 85.5641 0 1.3768 1.3768

BondAngle Coeffs

1 82.6961 150 0 0 1.489 1.417
2 82.6961 82.6961 0 0 1.489 1.489
3 82.6961 190.966 0 0 1.489 1.216
4 150 150 0.310219 0.310219 1.417 1.417
5 150 98.2315 0.25822 0.3511 1.417 1.0982
6 150 85.5641 0.441509 0.793248 1.417 1.3768
7 85.5641 85.5641 0 0 1.3768 1.3768

Dihedral Coeffs # class2xe

1 0 0 2.5 0 0 0
2 0 0 0.9063 0 0 0
3 0 0 4.6282 0 0 0
4 8.3667 0 1.1932 0 0 0
5 0 0 2.167 0 0 0
6 0 0 3.9661 0 0 0
7 0 0 1.8769 0 0 0
8 0 0 4.8498 0 0 0
9 0 0 1.7234 0 0 0
10 0 0 1.8 0 0 0

AngleAngleTorsion Coeffs

1 0 110.588 108.4
2 0 119.3 108.4
3 0 108.4 118.9
4 0 118.9 118.9
5 0 108.4 117.94
6 -4.8141 118.9 117.94
7 0.3598 117.94 117.94
8 -21.0247 118.9 123.42
9 4.2296 117.94 123.42
10 0 123.42 109.5

EndBondTorsion Coeffs

1 2.1 1.9 0 0 0 0 0 0 1.489 1.417
2 2.2 1.9 0 0 0 0 0 0 1.216 1.417
3 2.1 1.9 0 0 0 0 0 0 1.489 1.417
4 1.9 1.9 -0.1185 6.3204 0 -0.1185 6.3204 0 1.417 1.417
5 2.1 2.1 0 0 0 0 0 0 1.489 1.0982
6 1.9 2.1 0 -6.8958 0 0 -0.4669 0 1.417 1.0982
7 2.1 2.1 0 -0.689 0 0 -0.689 0 1.0982 1.0982
8 1.9 2.3 0 0.2655 0 0 4.8905 0 1.417 1.3768
9 2.1 2.3 0 -1.5867 0 0 4.2641 0 1.0982 1.3768
10 1.9 2.3 0 0 0 0 0 0 1.417 1.3768

MiddleBondTorsion Coeffs

1 2.1 0 0 0 1.489
2 2.1 0 0 0 1.489
3 1.9 0 0 0 1.417
4 1.9 27.5989 -2.312 0 1.417
5 1.9 0 0 0 1.417
6 1.9 0 -1.1521 0 1.417
7 1.9 0 4.8228 0 1.417
8 1.9 0 4.8255 0 1.417
9 1.9 0 5.5432 0 1.417
10 2.3 0 0 0 1.3768

BondBond13 Coeffs

1 116.348 0 1.489 1.417
2 170.483 0 1.216 1.417
3 116.348 0 1.489 1.417
4 150 0.420317 1.417 1.417
5 90.4638 0 1.489 1.0982
6 124.116 0.158982 1.417 1.0982
7 98.2315 0.0932321 1.0982 1.0982
8 117.782 0.0975929 1.417 1.3768
9 91.8978 0.105655 1.0982 1.3768
10 117.782 0 1.417 1.3768

AngleTorsion Coeffs

1 0 0 0 0 0 0 110.588 108.4
2 0 0 0 0 0 0 119.3 108.4
3 0 0 0 0 0 0 108.4 118.9
4 1.9767 1.0239 0 1.9767 1.0239 0 118.9 118.9
5 0 0 0 0 0 0 108.4 117.94
6 0 2.5014 0 0 2.7147 0 118.9 117.94
7 0 2.4501 0 0 2.4501 0 117.94 117.94
8 0 10.0155 0 0 1.7404 0 118.9 123.42
9 0 1.8729 0 0 2.5706 0 117.94 123.42
10 0 0 0 0 0 0 123.42 109.5

Improper Coeffs # class2

1 10 0
2 38.7949 0
3 4.8912 0
4 13.0421 0

AngleAngle Coeffs

1 0 0 0 108.4 118.9 108.4
2 0 0 0 110.588 119.3 119.3
3 0 0 0 118.9 117.94 117.94
4 0 0 0 118.9 123.42 123.42

Atoms # full

13 1 2 0.0265 -0.3911528644312199 -2.685935336170375 -11.767196815002697 0 0 0
14 1 2 -0.1268 -0.9156503580340052 -1.4042063089152514 -11.604849837896834 0 0 0
15 1 2 -0.1268 -0.9721512463278419 -0.8727054054656334 -10.33705292975539 0 0 0
16 1 2 0 -0.5178078352541111 -1.5686197020539407 -9.205641979434635 0 0 0
17 1 2 -0.1268 -0.07040713577081004 -2.9069172247897392 -9.356261431643844 0 0 0
45 1 3 0.1268 0.3096827758728464 -0.8001008988940814 -13.622422049323458 0 0 0
69 2 5 -0.053 -0.5144859082841067 2.2292808269037465 -12.909965823725654 0 0 0
75 2 2 0.0265 -0.37921918004122834 2.8727216660552024 -14.142425828090937 0 0 0
120 2 3 0.1268 0.42183770731393455 1.2744112901092288 -10.726969835213087 0 0 0
81 2 2 0.0265 -0.4776621196904689 2.916096861526616 -11.710229687365098 0 0 0
86 2 2 -0.1268 0.11477471803245098 2.32096163861097 -10.65364247405368 0 0 0
85 2 2 -0.1268 0.20606868526356736 2.931506148108391 -9.404993138785102 0 0 0
279 5 2 0.0265 3.244825751082357 0.2892636252585614 -9.655189302340837 0 0 0
280 5 2 -0.1268 3.8250907193853365 1.5378094303976875 -9.883845904957226 0 0 0
284 5 2 -0.1268 2.662897516000367 -0.411577391250292 -10.729184447732555 0 0 0
281 5 2 -0.1268 3.6866998175698438 2.1075043583846185 -11.149375325874946 0 0 1
320 5 3 0.1268 2.2518258268072717 -1.4042264264305588 -10.682352046369182 0 0 0
119 2 3 0.1268 0.5860467227775086 2.2577241093663405 -8.690233341391824 0 0 0
283 5 2 -0.1268 2.690480976985632 0.09823081613366114 -12.016052008912753 0 0 1
282 5 2 0.0265 3.0895224927055054 1.3965454232866978 -12.225344357560868 0 0 1
319 5 3 0.1268 2.115563635486752 -0.35312105639485614 -12.80691928823231 0 0 1
276 5 5 -0.053 2.9594582860272407 2.070988401717785 -13.49601377235824 0 0 1
273 5 5 -0.053 3.549230573300579 -0.4744520864006674 -8.524695862368292 0 0 0
50 1 3 0.1268 -1.3018445271106551 0.19058782848785416 -10.092295314640557 0 0 0
19 1 1 0.3964 -0.3913354324012128 -0.7934864114881215 -7.947814888193602 0 0 0
49 1 3 0.1268 -1.2585642996590973 -0.7838070816102225 -12.424683361896673 0 0 0
318 5 3 0.1268 4.129342739200294 3.0942249506042803 -11.427671673826698 0 0 1
478 8 4 -0.3964 2.919749909490891 -3.180076639460898 -8.280644082399625 0 1 0
2 1 4 -0.3964 -0.311351649519366 0.4188630277311347 -8.009940296372875 0 0 0
339 5 3 0.1268 3.824166931992255 -0.5017362701771306 -13.941588256491583 0 0 1
7 1 2 0.0265 -0.36922926360177843 -2.7630098608042237 -14.242158129278188 0 0 0
317 5 3 0.1268 4.422131596524192 2.133358773168985 -9.107499338102603 0 0 0
314 5 2 0.0265 2.8998830402267757 1.3272033177903468 -14.672405327784244 0 0 1
51 1 3 0.1268 0.38655522331308445 -3.495649215471473 -8.503767858435701 0 0 0
315 5 2 -0.1268 3.38256454940462 0.0483006612505843 -14.811246612586034 0 0 1
1 1 5 -0.053 -0.27024223288159455 -3.330026950376685 -12.957794737813915 0 0 0
18 1 2 -0.1268 -0.025640486457549017 -3.432751217917045 -10.637577241023578 0 0 0
8 1 2 -0.1268 -0.06094661152268088 -1.438674371783482 -14.46958655240177 0 0 0
526 8 3 0.1268 3.8381392444564666 -3.478435289227572 -10.685396769316393 0 1 0
76 2 2 -0.1268 0.28147638674448494 4.100776754542313 -14.2896167124771 0 0 0
321 5 3 0.1268 2.556546286757433 2.08727556711791 -7.9149556377505075 0 0 0
552 9 2 -0.1268 6.878590801427881 -1.8639525508269439 -14.968023496315126 0 0 0
593 9 3 0.1268 5.648609906681316 -1.1462317777900846 -12.989645792332423 0 0 0
594 9 3 0.1268 6.10339474752411 -0.06860182892908906 -10.879885400236025 0 0 0
557 9 2 0.0265 6.568890037984241 -3.1259726427027905 -12.4128052848178 0 0 0
558 9 2 -0.1268 6.245906718353227 -1.7432347523579605 -12.211669966675249 0 0 0
559 9 2 -0.1268 6.362611069949944 -1.1474685439401524 -10.994290514139243 0 0 0
560 9 2 0 6.806689908796109 -1.8928947396190487 -9.860564090774751 0 0 0
561 9 2 -0.1268 7.165973618180665 -3.257121751784816 -9.977196864498671 0 0 0
664 10 3 0.1268 7.525258061944891 1.3148969514666904 -11.857074493108088 0 0 0
663 10 3 0.1268 7.528792268533657 2.2984161944808967 -9.560615571454386 0 0 0
630 10 2 -0.1268 7.201676954540769 2.3586005331353723 -11.691275953116918 0 0 0
629 10 2 -0.1268 7.120219324351741 2.91465151982758 -10.41154401422981 0 0 0
817 13 5 -0.053 10.21391718369673 -0.5656869112550029 -13.54441490855633 0 0 0
829 13 2 0.0265 10.278693001752202 0.0460257813476419 -12.293484006670258 0 0 0
830 13 2 -0.1268 10.748691065850245 1.3385254928005095 -12.156496215238388 0 0 0
831 13 2 -0.1268 10.79416067349405 1.9521863656470417 -10.88808654111832 0 0 0
832 13 2 0 10.474829972671802 1.2365735760150587 -9.709766039302773 0 0 0
833 13 2 -0.1268 10.14326843487803 -0.09516575141121963 -9.875886419931984 0 0 0
834 13 2 -0.1268 10.092707497438223 -0.680780410410788 -11.146555749950135 0 0 0
868 13 3 0.1268 9.655648472553105 -1.6664776563177703 -11.278676909655193 0 0 0
625 10 2 0.0265 6.742217038411303 3.0715907018714983 -12.836320047852048 0 0 0
867 13 3 0.1268 9.951854750446783 -0.7502774071356137 -8.98846785856513 0 0 0
818 13 4 -0.3964 10.32621100472853 3.1336721595373724 -8.298169637514528 0 0 0
589 9 3 0.1268 7.172401579684962 -1.1796633555640308 -14.104330644611442 0 0 0
613 10 5 -0.053 6.697611668076368 2.3781960594352585 -14.048165564864892 0 0 0
835 13 1 0.3964 10.404985696718228 1.9414852673961205 -8.368923805560152 0 0 0
563 9 1 0.3964 6.958659050264142 -1.0736500469652293 -8.61333609491212 0 0 0
861 13 3 0.1268 9.061088728270306 1.660994426429025 -14.083039742714499 0 0 0
546 9 4 -0.3964 7.1286839010038126 0.13042706550464978 -8.73235677283725 0 0 0
865 13 3 0.1268 11.130458868923037 1.9188394789877794 -12.994173110644727 0 0 0
551 9 2 0.0265 6.440202883756022 -3.212409708150496 -14.790119313637415 0 0 0
1066 16 3 0.1268 11.302051068452982 -3.1749925554953866 -11.272248846028361 0 1 1
866 13 3 0.1268 11.220651872492788 2.983667025483899 -10.836654970934916 0 0 0
595 9 3 0.1268 7.767450702443956 -3.7366506736716536 -9.1765655540426 0 0 0
545 9 5 -0.053 6.409869066496446 -3.860695406034446 -13.573799459281037 0 0 0
823 13 2 0.0265 10.272065635217446 0.017660511700927195 -14.740304496076 0 0 0
562 9 2 -0.1268 7.023033058610261 -3.8377958074659206 -11.259293633056629 0 0 0
824 13 2 -0.1268 9.532716210245638 1.130979945068467 -14.958952610470979 0 0 0
869 13 3 0.1268 11.194960431709866 -0.7132721957033361 -7.612929641533314 0 0 0
665 10 3 0.1268 6.056916203253273 2.4112138655154167 -8.327688189712802 0 0 0
633 10 2 -0.1268 6.418734251199684 3.029822373042098 -7.519601924730386 0 0 0
597 9 3 0.1268 5.900936976423063 -3.3719006580151163 -8.058304548041093 0 0 0
82 2 2 -0.1268 -0.8926771873265869 4.256350638151643 -11.648624629969177 0 0 0
84 2 2 0 -0.3521041679728998 4.248592296892864 -9.278259688351444 0 0 0
388 6 3 0.1268 1.7533433462826826 4.871747883966753 -10.539094564854693 0 0 0
117 2 3 0.1268 -1.3351947174628842 4.812152574366166 -12.545947603250148 0 0 0
113 2 3 0.1268 0.6958719882908793 4.6291177992545585 -13.385763432017217 0 0 0
83 2 2 -0.1268 -0.8154571709295271 4.888297715006832 -10.43051619002992 0 0 0
347 6 2 0.0265 3.1293739972089627 6.194896742512462 -9.550478577120506 0 0 0
352 6 2 -0.1268 2.4741637089606447 5.695512830397748 -10.659217981978099 0 0 0
188 3 3 0.1268 0.3800903853686659 7.358608861191154 -10.511698711830203 0 0 0
348 6 2 -0.1268 3.7919195940042094 7.361010294116339 -9.7110566574291 0 0 0
181 3 3 0.1268 0.6163265522395949 10.667365062338089 -13.598965417437173 0 0 0
154 3 2 -0.1268 0.20275933907253307 8.38502120391607 -10.614207636145162 0 0 0
153 3 2 -0.1268 0.10913624188172744 9.01892219455043 -9.356923941718277 0 0 0
152 3 2 0 -0.39380878934801977 10.303253119653467 -9.248386771405057 0 0 0
151 3 2 -0.1268 -0.7933638637512825 10.9653502043861 -10.407362882926046 0 0 0
150 3 2 -0.1268 -0.7289961642461231 10.325318120296435 -11.632338603858589 0 0 0
149 3 2 0.0265 -0.31342620400181165 8.998423150007163 -11.74949467617726 0 0 0
137 3 5 -0.053 -0.43685770930282897 8.250902089478842 -12.91974668194846 0 0 0
409 7 5 -0.053 3.086713226747472 11.610428378896591 -13.135507810170695 0 0 0
426 7 2 -0.1268 2.606807389986078 11.57985361506908 -10.833475706469208 0 0 0
460 7 3 0.1268 2.0626380441244496 10.660280884707957 -10.967909066121056 0 0 0
349 6 2 -0.1268 3.7708093018460493 7.989225178968624 -10.919456021992154 0 0 1
351 6 2 -0.1268 2.557300597114823 6.225757145997486 -11.946343283362832 0 0 1
350 6 2 0.0265 3.2118981648565574 7.4250692289373 -12.079189913536098 0 0 1
187 3 3 0.1268 0.3797955645222877 8.525886945255042 -8.380168479731413 0 0 0
387 6 3 0.1268 2.0041968884561774 5.752494250336646 -12.837671621387043 0 0 1
344 6 5 -0.053 3.3163353647969362 8.169187649978397 -13.247995324748258 0 0 1
185 3 3 0.1268 -1.1379207553775523 10.958527296562009 -12.436902822469355 0 0 0
341 6 5 -0.053 3.0834346752938924 5.479434688610228 -8.386245564244906 0 0 0
143 3 2 0.0265 -0.2798240633588591 8.77225045322162 -14.194980359110332 0 0 0
459 7 3 0.1268 2.140323747531104 11.482964204312703 -8.842629160880966 0 0 0
118 2 3 0.1268 -1.2738416680335232 5.8919415726579025 -10.367394589113715 0 0 0
385 6 3 0.1268 4.342141426690569 7.926083217062727 -8.9511552594112 0 0 0
407 6 3 0.1268 3.9632729732822707 5.4692473325431905 -13.755102057868193 0 0 1
382 6 2 0.0265 3.2800743981127516 7.437051916016477 -14.443257473192286 0 0 1
155 3 1 0.3964 -0.3929335219331762 11.142858941208063 -7.919860812539152 0 0 0
386 6 3 0.1268 4.121234251359773 8.987138076125715 -10.866223858045894 0 0 1
144 3 2 -0.1268 0.23993745840250025 10.028106358783315 -14.394224634796025 0 0 0
87 2 1 0.3964 -0.4101658385646678 5.03577164499214 -8.0100042482905 0 0 0
70 2 4 -0.3964 -0.5371060953578317 6.270870930369675 -8.034323072698644 0 0 0
383 6 2 -0.1268 3.770243276949456 6.115414257190961 -14.601314095234097 0 0 1
186 3 3 0.1268 -1.1035538551911648 12.051850981205027 -10.390044280539342 0 0 0
425 7 2 -0.1268 2.7190366798831533 12.08120977965442 -9.547155388534303 0 0 0
421 7 2 0.0265 3.0690754155284754 12.257774499085068 -11.92210372967531 0 0 0
138 3 4 -0.3964 -0.5009964924251928 12.352654780723922 -7.967112374843302 0 0 0
389 6 3 0.1268 1.883998879661151 7.877067838653918 -7.77950188094817 0 0 0
628 10 2 0 6.765123430690117 4.257211021972429 -10.23686529097059 0 0 0
626 10 2 -0.1268 6.254542958307821 4.353625087947757 -12.648071039104659 0 0 0
936 14 3 0.1268 9.453536673533483 4.2353603605581736 -11.266130057166924 0 0 0
891 14 2 0.0265 10.36162739639653 6.008076948613214 -14.466945993654894 0 0 0
657 10 3 0.1268 7.701553985279158 4.856654667838214 -14.568852867531152 0 0 0
661 10 3 0.1268 6.033519846429714 5.041435959443323 -13.47346813139873 0 0 0
729 11 3 0.1268 5.589366138515323 11.050754441453371 -12.86118796393526 0 0 0
627 10 2 -0.1268 6.384452832093562 4.956842793937074 -11.376213834117806 0 0 0
662 10 3 0.1268 6.032673419246699 5.980742109699504 -11.2459923685411 0 0 0
885 14 5 -0.053 10.2880639224368 5.323643388771858 -13.283181406882537 0 0 0
897 14 2 0.0265 10.270342440901643 5.976674048477772 -12.090970711885774 0 0 0
901 14 2 -0.1268 9.890823256813823 5.785551902661187 -9.701310731117106 0 0 0
902 14 2 -0.1268 9.794133456118653 5.288231923788516 -10.986276811066617 0 0 0
732 11 3 0.1268 7.661168748336376 7.699764456378036 -11.134547240556863 0 0 0
898 14 2 -0.1268 10.838400816765503 7.239963401585147 -11.911403030230147 0 0 0
899 14 2 -0.1268 10.858066551911282 7.831112515546259 -10.671175565015506 0 0 0
900 14 2 0 10.315109108454823 7.137761530648685 -9.567961902944607 0 0 0
698 11 2 -0.1268 7.340760461049221 8.73766007496351 -11.013770966042141 0 0 0
697 11 2 -0.1268 7.382684396842521 9.431821214946487 -9.812520066561962 0 0 0
696 11 2 0 6.781943389516474 10.685458825015802 -9.65872329710285 0 0 0
694 11 2 -0.1268 6.034812116538191 10.567940417039948 -11.992541788247049 0 0 0
693 11 2 0.0265 6.685925079935773 9.324244623813527 -12.144732762974614 0 0 0
681 11 5 -0.053 6.73596379865193 8.660149767264228 -13.359088939825988 0 0 0
1000 15 3 0.1268 9.00330226063428 11.136483101498673 -10.691936262505104 0 0 0
695 11 2 -0.1268 6.153288956084797 11.240797793542221 -10.791386939224392 0 0 0
725 11 3 0.1268 7.548189597495897 11.192198771560854 -13.96156584139449 0 0 0
935 14 3 0.1268 9.385267489742128 5.275441785163077 -8.838724169575833 0 0 0
731 11 3 0.1268 7.778239881679802 8.902887779976242 -8.887919956580053 0 0 0
929 14 3 0.1268 9.472895147742872 7.85223582408495 -13.773309720948198 0 0 0
631 10 1 0.3964 6.792930921386144 5.091859056365626 -8.967055302544175 0 0 0
614 10 4 -0.3964 6.7224869212067535 6.301287352718532 -9.091425297276334 0 0 0
903 14 1 0.3964 10.460697507877388 7.9016417020186545 -8.276364318383528 0 0 0
886 14 4 -0.3964 10.485324587560934 9.09423060383226 -8.279808444211804 0 0 0
699 11 1 0.3964 6.6679424233255755 11.41236013610243 -8.300473612944135 0 0 0
933 14 3 0.1268 11.210158492255395 7.8321220682433506 -12.758143745199778 0 0 0
964 15 2 -0.1268 9.75555668749427 11.883793339722205 -10.826519509484498 0 0 0
687 11 2 0.0265 6.671132486137756 9.294961596051227 -14.575701385852803 0 0 0
953 15 5 -0.053 10.179910317917543 11.893781651919372 -8.443129501226355 0 0 0
934 14 3 0.1268 11.141305668404339 8.85700056792869 -10.557814807313546 0 0 0
1019 15 3 0.1268 11.273157404284639 11.518634478978232 -14.000022087787013 0 0 1
999 15 3 0.1268 9.349578470496668 12.08401225464071 -12.936990010345461 0 0 1
688 11 2 -0.1268 7.164914038768046 10.580938825026925 -14.83192551966551 0 0 0
892 14 2 -0.1268 9.81821784840305 7.309636766656869 -14.677743058879418 0 0 0
730 11 3 0.1268 5.460493024981306 12.164161242910291 -10.688325511074321 0 0 0
733 11 3 0.1268 5.737390558711343 8.746693706161471 -7.7773233657767395 0 0 0
937 14 3 0.1268 11.02695079022264 5.417205328028784 -7.6239332257658265 0 0 0
995 15 2 -0.1268 10.946106317999293 12.221405652033434 -14.813617943109842 0 0 1
632 10 2 0 6.775683286729707 4.388366765452698 -7.624682345527556 0 0 0
415 7 2 0.0265 3.093015481202154 12.379444315026864 -14.320608373177508 0 0 0
253 4 3 0.1268 -1.6698098692127419 17.56903845811683 -12.411543023767141 0 0 0
484 8 2 -0.1268 2.4331249917941706 19.397014043595064 -14.697323300077082 0 0 0
495 8 1 0.3964 2.9708720523769436 20.247420295469958 -8.261657015434139 0 0 0
491 8 2 -0.1268 3.590656105313826 20.068606486480952 -10.64401705534399 0 0 0
525 8 3 0.1268 3.9514727528838325 20.189217921228114 -12.722415660379433 0 0 0
521 8 3 0.1268 2.0341820921413376 20.04008915193605 -13.917387812091462 0 0 0
52 1 3 0.1268 0.40765651916311185 20.254025169097744 -10.802032563557606 0 -1 0
256 4 3 0.1268 0.11956277492854683 14.01814978021799 -10.858134417753945 0 0 0
205 4 5 -0.053 -0.7334212557574697 15.0331368379498 -13.040255065468624 0 0 0
217 4 2 0.0265 -0.6145825580943745 15.761549401731562 -11.902993366236922 0 0 0
219 4 2 -0.1268 -0.9634497325090579 17.656951971559486 -10.446579088296598 0 0 0
220 4 2 0 -0.5208949520837636 16.929365414425874 -9.313429642667714 0 0 0
221 4 2 -0.1268 -0.09082598394178554 15.625865634569655 -9.484969368856635 0 0 0
222 4 2 -0.1268 -0.1479923182439471 15.071825732354908 -10.739361094640092 0 0 0
528 8 3 0.1268 2.173268218466017 16.4983455744972 -10.969759823745546 0 0 0
422 7 2 -0.1268 3.624187038159789 13.503471545084855 -11.686197581899131 0 0 0
423 7 2 -0.1268 3.6049029113908535 14.11048704838993 -10.447689054412006 0 0 0
424 7 2 0 3.192695546123491 13.407442524014273 -9.312917400010745 0 0 0
453 7 3 0.1268 1.9117504154231817 14.042141488273645 -13.637193553063266 0 0 0
457 7 3 0.1268 4.049680115350885 14.082202247964728 -12.541068627581083 0 0 0
489 8 2 0.0265 3.1148060490601157 18.156651448678964 -12.014641838492459 0 0 0
490 8 2 -0.1268 3.6624735325693845 19.48863334384039 -11.91856731584389 0 0 0
492 8 2 0 3.0494341435594885 19.442967737365926 -9.540427637328502 0 0 0
493 8 2 -0.1268 2.638884708988239 18.100711399567736 -9.641122759020092 0 0 0
494 8 2 -0.1268 2.6821625263765068 17.48740820708074 -10.853051878321011 0 0 0
218 4 2 -0.1268 -0.9994478259122246 17.07462118492699 -11.696107820515579 0 0 0
477 8 5 -0.053 2.9851358974289584 17.464682699018034 -13.222586218344265 0 0 0
255 4 3 0.1268 0.1708069681795945 15.011292391958028 -8.611880481102503 0 0 0
527 8 3 0.1268 2.2145219566861307 17.59874499103436 -8.76022521441313 0 0 0
249 4 3 0.1268 0.021144349621600167 17.666230195345705 -13.769823512288209 0 0 0
458 7 3 0.1268 3.9136195209193705 15.17304359023919 -10.459377231007625 0 0 0
410 7 4 -0.3964 3.357549540081946 15.319883339531364 -7.944669334367244 0 0 0
223 4 1 0.3964 -0.46357519465362884 17.607532513363587 -7.9543622795716225 0 0 0
427 7 1 0.3964 3.17538897837912 14.131086101818083 -8.042494127752022 0 0 0
206 4 4 -0.3964 -0.5092365654518765 18.813647222263164 -7.817025152572294 0 0 0
211 4 2 0.0265 -0.6390711669833005 15.605790789575197 -14.276183288164319 0 0 0
483 8 2 0.0265 2.9155630580580576 18.092058252039486 -14.49687549083477 0 0 0
254 4 3 0.1268 -1.39516736957009 18.68319512058141 -10.288370988560631 0 0 0
416 7 2 -0.1268 2.392577407984744 13.574919805565655 -14.520954827643182 0 0 0
212 4 2 -0.1268 -0.13870813133153304 16.877028592405196 -14.520574590993306 0 0 0
1069 16 3 0.1268 9.243894539599765 19.850864650189727 -8.031331124479271 0 0 0
963 15 2 -0.1268 9.905144794578922 12.460006884182219 -12.076707287215553 0 0 1
682 11 4 -0.3964 6.340935159969357 12.569760445618298 -8.220769449966284 0 0 0
1024 16 5 -0.053 10.237647308075719 20.489139230159388 -13.38466458268794 0 0 1
1029 16 2 -0.1268 10.87595393542409 20.454223186816478 -11.057583955894092 0 0 1
1062 16 2 0.0265 10.295650878229605 19.88223181348271 -14.62578337124355 0 0 1
959 15 2 0.0265 10.299824557203609 12.490904314145988 -9.680045225883074 0 0 0
798 12 3 0.1268 6.081048303473008 18.340240451533838 -10.566412774576488 0 0 0
998 15 3 0.1268 11.542804341097542 15.282131920543394 -11.232301944222893 0 0 1
596 9 3 0.1268 7.250533430762749 19.726425568610665 -11.408537911209713 0 -1 0
797 12 3 0.1268 5.933397505539542 17.08286735551947 -12.765920761075007 0 0 0
1030 16 2 0.0265 10.339733361018727 19.783076722787293 -12.19945126843242 0 0 1
749 12 5 -0.053 7.038853065613502 14.651681751981402 -13.153881820221132 0 0 0
1067 16 3 0.1268 9.34229431704547 17.940704920107727 -12.933706486051566 0 0 1
1031 16 2 -0.1268 9.940522375799924 18.448235823535278 -12.12901361647612 0 0 1
961 15 2 -0.1268 11.19379772857051 14.253224291096329 -11.139583747674614 0 0 1
800 12 3 0.1268 8.010344513749864 13.838086982162855 -11.136985616249618 0 0 0
799 12 3 0.1268 7.969181741069846 14.825992705301127 -8.8002143935988 0 0 0
761 12 2 0.0265 6.9733705560576205 15.417352121940327 -11.985642864828106 0 0 0
762 12 2 -0.1268 6.486689115283912 16.723906318141537 -11.84190429480358 0 0 0
763 12 2 -0.1268 6.432768294387468 17.301763360819393 -10.60266694618586 0 0 0
764 12 2 0 6.96555492008658 16.688095851567333 -9.436458045290461 0 0 0
765 12 2 -0.1268 7.532495642486769 15.42846575632147 -9.62396197400813 0 0 0
766 12 2 -0.1268 7.582256232239631 14.842711024691615 -10.907237652166785 0 0 0
1068 16 3 0.1268 9.465834335202585 16.8688802426972 -10.904063543289926 0 0 0
960 15 2 -0.1268 11.000193616022484 13.69859698070316 -9.866882998863014 0 0 0
1021 16 5 -0.053 10.570643294210566 17.654770769080734 -8.590275257481693 0 0 0
1027 16 2 0.0265 10.513794618383058 18.389393063063174 -9.768057169582487 0 0 0
1028 16 2 -0.1268 10.952172203645006 19.77506366190785 -9.88367027911103 0 0 0
1032 16 2 -0.1268 10.064580780853609 17.783847871495766 -10.930638759163543 0 0 0
962 15 2 0.0265 10.612923625103429 13.666004885088162 -12.268107568322275 0 0 1
793 12 3 0.1268 7.810529182683876 17.17211822953535 -13.76887514626674 0 0 0
956 15 5 -0.053 10.746056635095082 14.271577933269937 -13.498200268228228 0 0 1
755 12 2 0.0265 7.008742502907058 15.227446903207467 -14.440308268108176 0 0 0
1087 16 3 0.1268 11.526464156450247 18.217899240850727 -13.797320090472015 0 0 1
767 12 1 0.3964 6.911363922426064 17.40985477863773 -8.145743243134417 0 0 0
750 12 4 -0.3964 6.681264872254591 18.62190373422502 -8.145845774894504 0 0 0
997 15 3 0.1268 11.531671950507073 14.069683347043062 -9.011255197030042 0 0 0
756 12 2 -0.1268 7.433261357329437 16.520770026650617 -14.608622799218391 0 0 0
1065 16 3 0.1268 11.4041147229652 20.283573232322567 -9.075725790104059 0 0 0
1063 16 2 -0.1268 10.994570747884932 18.63524706468727 -14.72787241141255 0 0 1
994 15 2 0.0265 10.693115926442355 13.59795141313709 -14.67058828075809 0 0 1
1001 15 3 0.1268 9.50136393343659 14.375845840118247 -7.816292730553866 0 0 0
53 1 3 0.1268 -1.1900627121387397 -3.369477620364733 -7.487737166705548 0 0 0
535 8 3 0.1268 4.483219356675167 -3.1749669870458934 -0.5216497844651862 0 1 0
121 2 3 0.1268 -1.3842292626443884 2.5371979983297477 -7.23043286058084 0 0 0
57 1 3 0.1268 -1.9424903313943767 -1.1123300667128624 -2.1854388111208127 0 0 0
285 5 2 0.0265 3.395713113479503 0.142981472090022 -7.2861028442400135 0 0 0
294 5 2 -0.1268 2.6408631167133665 -0.7479966900916297 -0.6488584740010612 0 0 0
28 1 2 -0.1268 -1.0821339826690903 -1.016479218732195 -0.19761909928895172 0 0 0
297 5 2 -0.1268 3.9413044530388133 1.6832527031904982 -0.9369273932068367 0 0 0
286 5 2 -0.1268 2.8591959709924826 1.4019257767303621 -7.05709874439736 0 0 0
20 1 2 0 -0.43370780348391125 -1.4694392803546297 -6.575933298834455 0 0 0
287 5 2 -0.1268 2.7974360394503917 1.9972555017699651 -5.819398388409319 0 0 0
290 5 2 -0.1268 3.666908354069151 -0.6002162392741228 -6.129280182875993 0 0 0
322 5 3 0.1268 2.4452824305372776 3.0522622830150006 -5.634717124855731 0 0 0
288 5 2 0 3.1884582784771816 1.2809142931770898 -4.734608020944961 0 0 0
289 5 2 -0.1268 3.5288523340672393 -0.0699044242334157 -4.856410191599323 0 0 0
323 5 3 0.1268 3.670649522788664 -0.6796134032825436 -4.005176750815437 0 0 0
94 2 2 0.0265 -0.2896563507608776 3.154889848696871 -1.6583048712551918 0 0 0
91 2 2 0.0265 -0.4542191596772587 3.1836683784455913 -4.06145445607887 0 0 0
90 2 2 -0.1268 -0.8805257871401415 2.4246493592362945 -5.198915105740147 0 0 0
89 2 2 -0.1268 -0.753215122367701 2.9582208288594725 -6.435080429624415 0 0 0
71 2 5 -0.053 -0.46567219499776025 2.5203673107004887 -2.8876174796002623 0 0 0
56 1 3 0.1268 0.37203507427874705 0.15889804997741486 -5.310413650089888 0 0 0
55 1 3 0.1268 0.20265864343673057 -1.03341062403145 -3.249322688845899 0 0 0
27 1 2 -0.1268 -1.2535711518888482 -1.6273787155781587 -1.4414723671518033 0 0 0
26 1 2 0.0265 -0.7035030419921686 -2.8993129074546915 -1.686485315554826 0 0 0
25 1 2 -0.1268 -0.1782722992574166 -0.8118676641581883 -5.3533447534893135 0 0 0
24 1 2 -0.1268 -0.2560570290464448 -1.4981798947454226 -4.121141107048448 0 0 0
23 1 2 0.0265 -0.7387358745935104 -2.83676106913269 -4.087697727499597 0 0 0
21 1 2 -0.1268 -0.8830730532076991 -2.769814244607455 -6.535053794485815 0 0 0
291 5 1 0.3964 3.3410324772319795 1.8605368019115058 -3.3656376955496032 0 0 0
292 5 2 0 3.3281388809456853 1.065521565090842 -2.058905488597624 0 0 0
293 5 2 -0.1268 2.672147542779732 -0.15881428482435922 -1.8941880371151694 0 0 0
325 5 3 0.1268 2.1836614299890638 -0.5935986053986722 -2.746305868938414 0 0 0
274 5 4 -0.3964 3.3432250912006056 3.074107908591354 -3.2371053018663254 0 0 0
122 2 3 0.1268 -1.2722939312406547 1.3961640763680707 -5.037134836009477 0 0 0
324 5 3 0.1268 3.8641014153132707 -1.663208226764937 -6.328268117098245 0 0 0
99 2 2 -0.1268 0.1266430765751858 2.329142399554918 -0.5573899892078256 0 0 0
128 2 3 0.1268 0.3208837925203132 1.23009956696054 -0.6633065685317519 0 0 0
328 5 3 0.1268 4.456803390623873 2.663289446586311 -0.9925860027300395 0 0 0
532 8 3 0.1268 1.9475469556701954 -3.3785645391402777 -5.887736335694685 0 1 0
31 1 2 -0.1268 0.11834473779604426 -3.501923705331585 -0.744184311403199 0 0 0
3 1 5 -0.053 -0.8835045333127491 -3.5412418363277176 -2.893713940482682 0 0 0
326 5 3 0.1268 2.172742134789292 -1.7112650006309842 -0.47240070591180405 0 0 0
394 6 3 0.1268 2.737976409552636 4.060722448843926 -0.4001976047391249 0 0 0
22 1 2 -0.1268 -0.9922283332913262 -3.4562859290559067 -5.32309945109435 0 0 0
836 13 2 0 10.339448613581476 1.23129696099583 -7.0083497261826455 0 0 0
876 13 3 0.1268 11.257623867788984 1.8735738651018048 -2.8094782069610442 0 0 0
564 9 2 0 6.923048636144028 -1.6139638056656533 -7.264529238252991 0 0 0
837 13 2 -0.1268 10.807132605181902 -0.06935164010012596 -6.78307539369853 0 0 0
565 9 2 -0.1268 6.330877330427844 -2.881654416580215 -7.193527564106919 0 0 0
873 13 3 0.1268 9.401352930382872 -1.567363770837677 -0.9686735348275874 0 0 0
870 13 3 0.1268 11.167892689734277 -1.7309569327086445 -5.4289637451280335 0 0 0
601 9 3 0.1268 6.04188044260548 -1.266538486490064 -2.976990753459024 0 0 0
672 10 3 0.1268 8.039129618936798 1.4816935828247697 -1.7189467151087872 0 0 0
843 13 2 -0.1268 9.946232619479392 -0.5454352180632411 -0.9346174148985913 0 0 0
666 10 3 0.1268 6.111157267661914 1.432632106105527 -6.086084394939418 0 0 0
634 10 2 -0.1268 6.381259161426142 2.5025599818542785 -6.226873185209724 0 0 0
569 9 2 -0.1268 7.395862740012319 -0.9677020580629914 -6.1115779041698595 0 0 0
600 9 3 0.1268 7.779365448917435 0.04625095793518241 -6.147279086812077 0 0 0
847 13 2 -0.1268 10.820582803365793 1.3678073375805688 -1.9374286555168982 0 0 0
871 13 3 0.1268 9.359382651524239 1.904662164553688 -3.788240071307655 0 0 0
638 10 2 0.0265 6.847397040728055 3.0353871145063778 -2.670187364342956 0 0 0
635 10 2 0.0265 6.867353951474582 3.178495817060499 -5.075067377761606 0 0 0
615 10 5 -0.053 6.896421571283003 2.375950978571291 -3.8926966536219645 0 0 0
599 9 3 0.1268 7.563203357662623 -1.0191644775186797 -4.002010643039606 0 0 0
571 9 2 -0.1268 6.4476214210821805 -1.8397782320070268 -2.165157582835624 0 0 0
570 9 2 0.0265 6.860123533752448 -3.1512403999988963 -2.431272310849696 0 0 0
568 9 2 -0.1268 7.352124469967155 -1.6036161340857475 -4.915161209219383 0 0 0
567 9 2 0.0265 6.7465307003993615 -2.8785565195754472 -4.784757460250972 0 0 0
819 13 5 -0.053 10.296919255879857 -0.6437759478154339 -3.2604354966307643 0 0 0
838 13 2 -0.1268 10.66896050937962 -0.7157086199004525 -5.561993673671264 0 0 0
839 13 2 0.0265 10.272557694081499 -0.011537955964016078 -4.448065405078019 0 0 0