LAMMPS data file via write_data, version 29 Aug 2024, timestep = 4400000, units = real

2176 atoms
5 atom types
2368 bonds
5 bond types
3776 angles
7 angle types
5632 dihedrals
10 dihedral types
1216 impropers
4 improper types

-2.3810533191009142 26.779233319102946 xlo xhi
-4.009508193612659 20.50950819360535 ylo yhi
-15.020473784221833 15.020473784221833 zlo zhi

Atom Type Labels

1 c_0
2 cp
3 hc
4 o_1
5 oc

Bond Type Labels

1 c_0-cp
2 c_0-o_1
3 cp-cp
4 cp-hc
5 cp-oc

Angle Type Labels

1 c_0-cp-cp
2 cp-c_0-cp
3 cp-c_0-o_1
4 cp-cp-cp
5 cp-cp-hc
6 cp-cp-oc
7 cp-oc-cp

Dihedral Type Labels

1 cp-c_0-cp-cp
2 o_1-c_0-cp-cp
3 c_0-cp-cp-cp
4 cp-cp-cp-cp
5 c_0-cp-cp-hc
6 cp-cp-cp-hc
7 hc-cp-cp-hc
8 cp-cp-cp-oc
9 hc-cp-cp-oc
10 cp-cp-oc-cp

Improper Type Labels

1 c_0-cp-cp-cp-nb==3
2 cp-c_0-cp-o_1-nb==3
3 cp-cp-cp-hc-nb==3
4 cp-cp-cp-oc-nb==3

Masses

1 12.01115
2 12.01115
3 1.00797
4 15.9994
5 15.9994

Pair Coeffs # lj/class2/coul/long

1 0.12 3.308
2 0.064 4.01
3 0.02 2.3
4 0.267 3.3
5 0.24 3.535

Bond Coeffs # class2

1 1.489 339.357 -655.724 670.236
2 1.216 823.795 -1878.79 2303.53
3 1.417 470.836 -627.618 1327.63
4 1.0982 372.825 -803.453 894.317
5 1.3768 428.88 -738.235 1114.97

Angle Coeffs # class2

1 108.4 43.9594 -8.3924 -9.3379
2 110.588 34.6214 -7.0939 -7.4032
3 119.3 65.1016 -17.9766 0
4 118.9 61.0226 -34.9931 0
5 117.94 35.1558 -12.4682 0
6 123.42 73.6781 -21.6787 0
7 109.5 60 0 0

BondBond Coeffs

1 0 1.489 1.417
2 0 1.489 1.489
3 0 1.489 1.216
4 68.2856 1.417 1.417
5 1.0795 1.417 1.0982
6 48.4754 1.417 1.3768
7 0 1.3768 1.3768

BondAngle Coeffs

1 0 0 1.489 1.417
2 0 0 1.489 1.489
3 0 0 1.489 1.216
4 28.8708 28.8708 1.417 1.417
5 20.0033 24.2183 1.417 1.0982
6 58.479 107.681 1.417 1.3768
7 0 0 1.3768 1.3768

Dihedral Coeffs # class2

1 0 0 2.5 0 0 0
2 0 0 0.9063 0 0 0
3 0 0 4.6282 0 0 0
4 8.3667 0 1.1932 0 0 0
5 0 0 2.167 0 0 0
6 0 0 3.9661 0 0 0
7 0 0 1.8769 0 0 0
8 0 0 4.8498 0 0 0
9 0 0 1.7234 0 0 0
10 0 0 1.8 0 0 0

AngleAngleTorsion Coeffs

1 0 110.588 108.4
2 0 119.3 108.4
3 0 108.4 118.9
4 0 118.9 118.9
5 0 108.4 117.94
6 -4.8141 118.9 117.94
7 0.3598 117.94 117.94
8 -21.0247 118.9 123.42
9 4.2296 117.94 123.42
10 0 123.42 109.5

EndBondTorsion Coeffs

1 0 0 0 0 0 0 1.489 1.417
2 0 0 0 0 0 0 1.216 1.417
3 0 0 0 0 0 0 1.489 1.417
4 -0.1185 6.3204 0 -0.1185 6.3204 0 1.417 1.417
5 0 0 0 0 0 0 1.489 1.0982
6 0 -6.8958 0 0 -0.4669 0 1.417 1.0982
7 0 -0.689 0 0 -0.689 0 1.0982 1.0982
8 0 0.2655 0 0 4.8905 0 1.417 1.3768
9 0 -1.5867 0 0 4.2641 0 1.0982 1.3768
10 0 0 0 0 0 0 1.417 1.3768

MiddleBondTorsion Coeffs

1 0 0 0 1.489
2 0 0 0 1.489
3 0 0 0 1.417
4 27.5989 -2.312 0 1.417
5 0 0 0 1.417
6 0 -1.1521 0 1.417
7 0 4.8228 0 1.417
8 0 4.8255 0 1.417
9 0 5.5432 0 1.417
10 0 0 0 1.3768

BondBond13 Coeffs

1 0 1.489 1.417
2 0 1.216 1.417
3 0 1.489 1.417
4 53 1.417 1.417
5 0 1.489 1.0982
6 -6.2741 1.417 1.0982
7 -1.7077 1.0982 1.0982
8 -2.2436 1.417 1.3768
9 2.0517 1.0982 1.3768
10 0 1.417 1.3768

AngleTorsion Coeffs

1 0 0 0 0 0 0 110.588 108.4
2 0 0 0 0 0 0 119.3 108.4
3 0 0 0 0 0 0 108.4 118.9
4 1.9767 1.0239 0 1.9767 1.0239 0 118.9 118.9
5 0 0 0 0 0 0 108.4 117.94
6 0 2.5014 0 0 2.7147 0 118.9 117.94
7 0 2.4501 0 0 2.4501 0 117.94 117.94
8 0 10.0155 0 0 1.7404 0 118.9 123.42
9 0 1.8729 0 0 2.5706 0 117.94 123.42
10 0 0 0 0 0 0 123.42 109.5

Improper Coeffs # class2

1 10 0
2 38.7949 0
3 4.8912 0
4 13.0421 0

AngleAngle Coeffs

1 0 0 0 108.4 118.9 108.4
2 0 0 0 110.588 119.3 119.3
3 0 0 0 118.9 117.94 117.94
4 0 0 0 118.9 123.42 123.42

Atoms # full

13 1 2 0.0265 -0.30880467072346196 -3.1433357016389327 -12.343874902113841 0 0 0
14 1 2 -0.1268 -0.869851228502214 -1.8783114248567951 -12.160088307195213 0 0 0
15 1 2 -0.1268 -0.8966061432472971 -1.2903599506322334 -10.895501911224837 0 0 0
16 1 2 0 -0.39895594707716153 -1.935036716382223 -9.731161110623617 0 0 0
17 1 2 -0.1268 0.05757384839707935 -3.2622827994109653 -9.89239685624936 0 0 0
45 1 3 0.1268 0.7994049214075183 -1.4120308846462746 -14.07513066998836 0 0 0
69 2 5 -0.053 -1.058437569694788 2.5729868588178606 -12.828309676944473 0 0 0
120 2 3 0.1268 -0.23977816297706678 1.4826938556123173 -10.703777508435671 0 0 0
81 2 2 0.0265 -0.9545180703015055 3.2854515113772482 -11.674794294241735 0 0 0
86 2 2 -0.1268 -0.44482517261319465 2.5329211516464465 -10.562749090275986 0 0 0
85 2 2 -0.1268 -0.24110770597497844 3.1485000101276848 -9.33137350744757 0 0 0
279 5 2 0.0265 3.423436021319249 0.3122982276995794 -9.028212327453407 0 0 0
280 5 2 -0.1268 3.6767272742796813 1.670870131320382 -9.255365479685983 0 0 0
284 5 2 -0.1268 2.944818298880855 -0.462688821871021 -10.037240247859666 0 0 0
281 5 2 -0.1268 3.491405071086361 2.2658912844666226 -10.478549538825085 0 0 1
320 5 3 0.1268 2.7819438213412404 -1.5677052193711516 -9.812440011388587 0 0 0
119 2 3 0.1268 0.23394263536986015 2.631359376108528 -8.482352316465775 0 0 0
283 5 2 -0.1268 2.7358530158905383 0.0867893847234269 -11.310876189659405 0 0 1
282 5 2 0.0265 3.064343984070142 1.4567155242747942 -11.570949005792084 0 0 1
319 5 3 0.1268 2.4582118041726106 -0.596070828842524 -12.083185536937643 0 0 1
276 5 5 -0.053 2.9492148316438174 2.117866381732213 -12.721695360483803 0 0 1
339 5 3 0.1268 4.092542567161593 -0.16020252871170504 -13.21049102385216 0 0 1
49 1 3 0.1268 -1.491854767008948 -1.3862438458298874 -12.898657959673617 0 0 0
75 2 2 0.0265 -0.9064643419546223 3.170070707145663 -14.045169891732119 0 0 0
318 5 3 0.1268 3.9806980436848356 3.2793462888652245 -10.679864409073195 0 0 1
50 1 3 0.1268 -1.3881345403255427 -0.32700604267646094 -10.816713494623286 0 0 0
526 8 3 0.1268 4.074402786777227 -3.3606756730913476 -10.565751925744536 0 1 0
317 5 3 0.1268 4.265162421056039 2.279972643974811 -8.508422713329534 0 0 0
273 5 5 -0.053 3.6439856633862506 -0.3661420285419541 -7.878112190538625 0 0 0
19 1 1 0.3964 -0.37459803045558715 -1.1796518112148973 -8.377921473374585 0 0 0
2 1 4 -0.3964 -0.3838121443054008 0.030967195519160384 -8.391295176388049 0 0 0
7 1 2 0.0265 -0.30314482738545045 -3.115862156283833 -14.749180695948667 0 0 0
478 8 4 -0.3964 3.14014674040153 -3.1445371905413575 -8.162655768385644 0 1 0
18 1 2 -0.1268 0.21441096513364055 -3.7376111052913905 -11.184268862638234 0 0 0
1 1 5 -0.053 -0.29491374308312945 -3.81124040145111 -13.549163028376256 0 0 0
314 5 2 0.0265 3.098262043959478 1.5273698850015345 -13.984341922290774 0 0 1
315 5 2 -0.1268 3.712202323789157 0.31488549585299364 -14.134222563432909 0 0 1
51 1 3 0.1268 0.315822205331473 -3.916493828084837 -9.09653815561029 0 0 0
53 1 3 0.1268 -1.2284445705037716 -3.8397635672215267 -7.776425876705641 0 0 0
8 1 2 -0.1268 0.2502461959663149 -1.9012824835312805 -14.890700846635275 0 0 0
594 9 3 0.1268 5.893354229860574 -0.371694944071018 -10.438185268424224 0 0 0
593 9 3 0.1268 5.856794059125368 -1.439464016496125 -12.693948621749454 0 0 0
557 9 2 0.0265 6.903653424252386 -3.3028882653638147 -11.948789122923804 0 0 0
558 9 2 -0.1268 6.299137709326143 -2.0087259405691427 -11.820570567357723 0 0 0
559 9 2 -0.1268 6.201013972002325 -1.3750599360017022 -10.61019353985715 0 0 0
560 9 2 0 6.6835876468224065 -2.0960518376002595 -9.495605680768492 0 0 0
561 9 2 -0.1268 7.2707764039875595 -3.379398820645239 -9.580551913251245 0 0 0
664 10 3 0.1268 7.406082483633652 1.2409088004274906 -10.650841293326536 0 0 0
663 10 3 0.1268 7.517665757862046 2.4297656331447346 -8.811217731972235 0 0 0
630 10 2 -0.1268 6.936219449130661 2.22599989965702 -10.800704449640875 0 0 0
629 10 2 -0.1268 6.92525870922549 2.937080677226681 -9.594579582650635 0 0 0
817 13 5 -0.053 10.061180957279559 -0.38787179112523873 -13.9104758512855 0 0 0
829 13 2 0.0265 10.141423007402507 0.26382886929416394 -12.706552417956308 0 0 0
830 13 2 -0.1268 10.826524351067116 1.4901197147594765 -12.471719260030524 0 0 0
831 13 2 -0.1268 10.904134209416288 2.003632002615216 -11.195497691579009 0 0 0
832 13 2 0 10.315926266093694 1.3022658280012749 -10.120112574768193 0 0 0
833 13 2 -0.1268 9.675523866414165 0.05375389948799558 -10.322852937649365 0 0 0
834 13 2 -0.1268 9.592780415385507 -0.4325843465245556 -11.567235834738751 0 0 0
868 13 3 0.1268 9.018397586156043 -1.389007607361973 -11.793349174719536 0 0 0
625 10 2 0.0265 6.668752528375698 2.878464177517465 -12.022152275787297 0 0 0
867 13 3 0.1268 9.161017890860947 -0.39327904189599217 -9.481543900622738 0 0 0
589 9 3 0.1268 7.968808610157868 -1.5921364181291744 -13.713687947414574 0 0 0
613 10 5 -0.053 6.791068854094332 2.1181191776407546 -13.27503109813841 0 0 0
563 9 1 0.3964 6.705462875035279 -1.4011301075824036 -8.176698875642792 0 0 0
861 13 3 0.1268 9.346141235323152 2.1078387775804854 -14.458350012958764 0 0 0
818 13 4 -0.3964 10.526289619477666 3.1814688189665885 -8.700592538920796 0 0 0
835 13 1 0.3964 10.43331495278429 1.9955475345089733 -8.780728854869093 0 0 0
546 9 4 -0.3964 6.6958394607617375 -0.1661402242731791 -8.053337847541702 0 0 0
865 13 3 0.1268 11.30977401536142 1.9790110250782993 -13.310768327028406 0 0 0
1066 16 3 0.1268 11.749740378301452 -3.3249727897760537 -11.158443244534197 0 1 1
866 13 3 0.1268 11.399341730926457 2.953494074548381 -10.996596348076734 0 0 0
551 9 2 0.0265 6.816353133755259 -3.3240988943978134 -14.33464476316488 0 0 0
595 9 3 0.1268 7.617818351914382 -3.9383559625899682 -8.685375933332624 0 0 0
620 10 2 -0.1268 7.301396405199622 4.092176456846179 -14.685977616266266 0 0 0
619 10 2 0.0265 6.856740935321977 2.787674931332628 -14.449972732949497 0 0 0
552 9 2 -0.1268 7.407220228832168 -2.1216307791532083 -14.508352456758493 0 0 0
665 10 3 0.1268 5.593964139510457 2.585631363215918 -7.608964223336149 0 0 0
597 9 3 0.1268 5.726980751138553 -3.8358092422557064 -7.600509458540174 0 0 0
869 13 3 0.1268 11.163710761396679 -0.8236999634495983 -8.124453455063659 0 0 0
836 13 2 0 10.436371900733574 1.2153753378872834 -7.53475377311767 0 0 0
76 2 2 -0.1268 -0.35726721096716485 4.4729486374441745 -14.229292327157674 0 0 0
84 2 2 0 -0.5860700363799956 4.463381063378868 -9.199505808060259 0 0 0
82 2 2 -0.1268 -1.4026540886363148 4.605363594910328 -11.488836894593584 0 0 0
113 2 3 0.1268 -0.22225208782219807 5.110550114169387 -13.339023855226241 0 0 0
388 6 3 0.1268 2.187692311156175 4.336822672146015 -10.220962553099625 0 0 0
117 2 3 0.1268 -1.9643746474475785 5.255074373593747 -12.214993029035773 0 0 0
83 2 2 -0.1268 -1.1498967902711326 5.217141492185402 -10.247781506935665 0 0 0
347 6 2 0.0265 3.151777052443266 6.00105308394763 -9.143382742134753 0 0 0
352 6 2 -0.1268 2.6280499644659603 5.338429673256865 -10.27967072453186 0 0 0
188 3 3 0.1268 0.5177175347010143 7.636741296497519 -10.466491446568767 0 0 0
348 6 2 -0.1268 3.6823542735839236 7.301644069214868 -9.30210929188351 0 0 0
181 3 3 0.1268 0.4045982862480413 10.926729668943416 -13.38868484502091 0 0 0
154 3 2 -0.1268 0.060952412724252 8.655139634411505 -10.44327281491048 0 0 0
153 3 2 -0.1268 0.18770200251851987 9.291714186132856 -9.226176284413832 0 0 0
152 3 2 0 -0.37346859757292883 10.535710888165537 -9.061741388779208 0 0 0
151 3 2 -0.1268 -0.8681219597441352 11.195100170204629 -10.167915302161285 0 0 0
150 3 2 -0.1268 -0.8783870860729537 10.549017983347149 -11.397644392938595 0 0 0
149 3 2 0.0265 -0.4625625108979019 9.255973661173515 -11.586229439806512 0 0 0
137 3 5 -0.053 -0.3979502295282702 8.51528743461393 -12.791850686565358 0 0 0
409 7 5 -0.053 3.3911275866529698 11.40869527464862 -13.69164995506279 0 0 0
426 7 2 -0.1268 2.7378893611028854 11.475288995158788 -11.354895915931436 0 0 0
460 7 3 0.1268 2.2643911807123667 10.456966555195862 -11.491970037372518 0 0 0
349 6 2 -0.1268 3.730531730854085 7.8943303335265504 -10.575139741610077 0 0 1
351 6 2 -0.1268 2.696283635127358 5.956451080045074 -11.529070825965123 0 0 1
350 6 2 0.0265 3.3052186748710364 7.205887691124868 -11.715241122843413 0 0 1
187 3 3 0.1268 0.745798686661574 8.655713238780296 -8.450446935355908 0 0 0
387 6 3 0.1268 2.2847259200755268 5.3586033404953515 -12.313454698204882 0 0 1
344 6 5 -0.053 3.298608433756624 7.967587511193779 -12.951282389099743 0 0 1
459 7 3 0.1268 2.296484043420487 11.530698921693464 -9.241478563890814 0 0 0
341 6 5 -0.053 3.1358363191686243 5.3015438488039415 -7.946030605793711 0 0 0
143 3 2 0.0265 -0.5359241517478419 9.097866999393482 -14.06702861048208 0 0 0
407 6 3 0.1268 4.243655273952443 5.434621772287853 -13.33893715801944 0 0 1
155 3 1 0.3964 -0.3801069590383279 11.232161235546045 -7.753160604607387 0 0 0
382 6 2 0.0265 3.282914905742909 7.261824705252524 -14.16678005593929 0 0 1
118 2 3 0.1268 -1.5266365706199192 6.205465927407394 -10.112252848887838 0 0 0
386 6 3 0.1268 4.217678934830093 8.835067447777073 -10.749230902809558 0 0 1
70 2 4 -0.3964 -0.6087652558861645 6.421817566378891 -7.793124948431652 0 0 0
87 2 1 0.3964 -0.4869527645540781 5.209283175344613 -7.859000395150046 0 0 0
144 3 2 -0.1268 -0.07071330937149378 10.412899328026763 -14.21579512296527 0 0 0
185 3 3 0.1268 -1.2484721401408527 11.136913294177353 -12.283909198979817 0 0 0
383 6 2 -0.1268 3.8331497228267057 5.961520859884519 -14.322121428133302 0 0 1
385 6 3 0.1268 4.058327317970199 7.968187967312911 -8.424019070175364 0 0 0
415 7 2 0.0265 3.221778409103628 12.173577829596843 -14.911279068713823 0 0 0
425 7 2 -0.1268 2.702327764309758 12.109333423064294 -10.120235279146677 0 0 0
186 3 3 0.1268 -1.455546229839788 12.170569094096654 -10.0825786003312 0 0 0
421 7 2 0.0265 3.3408831507545873 12.10018803760868 -12.48945221505618 0 0 0
461 7 3 0.1268 3.903988325575394 11.512836291672562 -8.022607148749866 0 0 0
389 6 3 0.1268 2.3483916134461236 7.882034414989661 -7.562993245690891 0 0 0
936 14 3 0.1268 9.207303962050293 4.276085500698878 -11.022680592963068 0 0 0
628 10 2 0 6.5073630412554255 4.238820526038797 -9.566994282983199 0 0 0
626 10 2 -0.1268 6.319968394936382 4.176671197237262 -11.992911769176127 0 0 0
688 11 2 -0.1268 7.272519929599481 10.18045002421982 -14.562908749666981 0 0 0
892 14 2 -0.1268 9.92147609797045 7.01590352118915 -14.835287173838397 0 0 0
687 11 2 0.0265 6.583771141854507 8.967074286747064 -14.434303137429499 0 0 0
657 10 3 0.1268 7.700927647564317 4.685604335802298 -13.848582862802415 0 0 0
933 14 3 0.1268 11.68529832162674 7.351729741628045 -12.93516922972755 0 0 0
661 10 3 0.1268 6.015326011562747 4.724988502547038 -12.975327767422206 0 0 0
627 10 2 -0.1268 6.150369839807475 4.864429678303159 -10.783499684700155 0 0 0
662 10 3 0.1268 6.013299412697256 5.9846290646262865 -10.762814676228466 0 0 0
885 14 5 -0.053 10.374642195867848 5.058641110500918 -13.45247148362172 0 0 0
897 14 2 0.0265 10.43696114470698 5.756945171464645 -12.204074883778544 0 0 0
901 14 2 -0.1268 9.900828133702621 5.9230705427249415 -9.858488778163702 0 0 0
902 14 2 -0.1268 9.817007762996957 5.224969204396205 -11.069358817231723 0 0 0
732 11 3 0.1268 7.518884224583664 7.225525196272768 -11.011109394686667 0 0 0
898 14 2 -0.1268 11.119769709238994 6.950109816029139 -12.096583510828665 0 0 0
899 14 2 -0.1268 11.143225934769658 7.715848082075871 -10.914706346056906 0 0 0
900 14 2 0 10.613354293722358 7.146970545570936 -9.762969892913627 0 0 0
698 11 2 -0.1268 7.218951747614998 8.245640639405948 -10.922421091069857 0 0 0
697 11 2 -0.1268 7.391715128774598 8.979818245387687 -9.717010359529466 0 0 0
696 11 2 0 6.962378971775973 10.301309559658115 -9.547425591220172 0 0 0
694 11 2 -0.1268 6.334148635161402 10.29597859905817 -11.8649694750159 0 0 0
693 11 2 0.0265 6.700065296489861 8.944247627295157 -12.060396874286083 0 0 0
681 11 5 -0.053 6.606781754461313 8.270027739358877 -13.235515570809437 0 0 0
1000 15 3 0.1268 9.458447975116128 10.769880277274968 -10.37903242163112 0 0 0
729 11 3 0.1268 6.0654016481764454 11.01110432744735 -12.779253540859315 0 0 0
695 11 2 -0.1268 6.425801802920763 10.92904389644215 -10.621874702321495 0 0 0
725 11 3 0.1268 7.8786340834244 10.52296493157159 -13.723829145878389 0 0 0
935 14 3 0.1268 9.3439400587884 5.502085536610807 -8.996362651339519 0 0 0
731 11 3 0.1268 7.951191820446123 8.537344171833526 -8.830903929342856 0 0 0
929 14 3 0.1268 9.359740903688275 7.544101423147239 -14.044842593276838 0 0 0
631 10 1 0.3964 6.477602224993996 5.071862527853266 -8.263191035053936 0 0 0
614 10 4 -0.3964 6.512793527169892 6.298053883581208 -8.334807833731043 0 0 0
699 11 1 0.3964 6.99894257529899 10.969496542528807 -8.165217915390553 0 0 0
903 14 1 0.3964 10.486843659601371 8.01528163040154 -8.553269155423994 0 0 0
886 14 4 -0.3964 10.483763104648139 9.19011541288689 -8.69022609477082 0 0 0
934 14 3 0.1268 11.675649916462111 8.659609682400216 -10.870581028680075 0 0 0
964 15 2 -0.1268 9.929076524365545 11.778395455553733 -10.641401543945655 0 0 0
953 15 5 -0.053 10.156679601071282 11.882216405285716 -8.267769096475782 0 0 0
1019 15 3 0.1268 11.76267261497821 11.73567024058944 -13.831545328083822 0 0 1
730 11 3 0.1268 6.1035323168456035 11.935559962877972 -10.662080831388707 0 0 0
891 14 2 0.0265 10.518181168300227 5.802093455037296 -14.612087557225792 0 0 0
937 14 3 0.1268 11.319754716256492 5.507973633759221 -7.7152251774903595 0 0 0
999 15 3 0.1268 9.619133812368652 11.925053505552427 -12.789238301203538 0 0 1
682 11 4 -0.3964 6.9396670417069295 12.228787113022255 -8.106140814330516 0 0 0
995 15 2 -0.1268 11.24090843480047 12.29594663832444 -14.656622849681202 0 0 1
733 11 3 0.1268 5.86755765184027 8.4808914870827 -7.595389150163801 0 0 0
138 3 4 -0.3964 -0.30879682317713053 12.488229965746436 -7.813452614201235 0 0 0
253 4 3 0.1268 -2.055354319276327 16.882717839355216 -12.867291625047317 0 0 0
495 8 1 0.3964 3.0323702952609315 20.18378524117849 -8.192546725304222 0 0 0
491 8 2 -0.1268 3.6453465318317084 20.094928161996904 -10.585332110093379 0 0 0
525 8 3 0.1268 4.178557875785204 19.9610890396513 -12.697210887157292 0 0 0
521 8 3 0.1268 2.3352514761249497 19.98194187695219 -13.637348711768363 0 0 0
52 1 3 0.1268 0.6322878656981836 19.73758267676061 -11.402900057014431 0 -1 0
256 4 3 0.1268 0.3521586076342671 13.67364021492792 -11.108583543312811 0 0 0
205 4 5 -0.053 -0.8323303146153145 14.548674467902996 -13.486684774079704 0 0 0
217 4 2 0.0265 -0.7433614980115295 15.260842290930173 -12.279659616920679 0 0 0
219 4 2 -0.1268 -1.1887377396179184 17.212423722488907 -10.830186599523728 0 0 0
220 4 2 0 -0.5172880624385059 16.65075214390125 -9.801414856853917 0 0 0
221 4 2 -0.1268 0.07932767677030439 15.437343759118955 -9.993885956353115 0 0 0
222 4 2 -0.1268 0.05807269675311888 14.745410097324013 -11.201067829884579 0 0 0
528 8 3 0.1268 2.3885688931796274 16.48632830265222 -10.949197776066269 0 0 0
422 7 2 -0.1268 4.01994190590071 13.267586180661366 -12.264345106646648 0 0 0
423 7 2 -0.1268 3.944455432421921 13.96047183253644 -11.069873022811727 0 0 0
424 7 2 0 3.3078286474266028 13.351664777403231 -9.97920907393743 0 0 0
453 7 3 0.1268 2.1714125732654708 13.973413385848515 -14.159556186093209 0 0 0
489 8 2 0.0265 3.2398511435899504 18.173033695902433 -11.965853054235868 0 0 0
490 8 2 -0.1268 3.6999981696955526 19.496420551359606 -11.822804146530911 0 0 0
492 8 2 0 3.0785664349267137 19.441037673247948 -9.448547126859083 0 0 0
493 8 2 -0.1268 2.592162269647469 18.147944005219628 -9.600064280038971 0 0 0
494 8 2 -0.1268 2.6755709044932736 17.51542226848064 -10.86540549739402 0 0 0
218 4 2 -0.1268 -1.3695517089458353 16.511647780085248 -12.020535756763067 0 0 0
477 8 5 -0.053 3.269715626414862 17.461868273992863 -13.184517682593805 0 0 0
255 4 3 0.1268 0.6412691046257102 15.011391883609315 -9.171207131764508 0 0 0
527 8 3 0.1268 2.2612599099903683 17.603617424010025 -8.718193115817765 0 0 0
249 4 3 0.1268 0.31761196824736304 17.07704831393027 -14.075331869436274 0 0 0
458 7 3 0.1268 4.486336245735362 14.922436388785707 -11.019648721573727 0 0 0
457 7 3 0.1268 4.479822829438872 13.778615356606126 -13.114102559153379 0 0 0
410 7 4 -0.3964 3.4958629366036975 15.385560738914977 -8.823174518902626 0 0 0
427 7 1 0.3964 3.371193712673893 14.19055078657451 -8.721443182272564 0 0 0
223 4 1 0.3964 -0.4807956005659826 17.441209952133534 -8.540842851769382 0 0 0
206 4 4 -0.3964 -0.35756976477740254 18.659425167574753 -8.600238375274 0 0 0
254 4 3 0.1268 -1.7418179177720317 18.17299846602122 -10.760561827607575 0 0 0
211 4 2 0.0265 -0.8182818428717193 15.292809166491645 -14.649966528933481 0 0 0
212 4 2 -0.1268 -0.23207922624687027 16.526491214231534 -14.792401417911334 0 0 0
483 8 2 0.0265 3.2421880845204445 18.139615627873887 -14.439075495924149 0 0 0
484 8 2 -0.1268 2.688585316494434 19.393793391908275 -14.531767605934297 0 0 0
257 4 3 0.1268 -1.4981099543998821 14.940212527000098 -8.041543083049735 0 0 0
562 9 2 -0.1268 7.259995334120655 20.476504038192726 -10.818182087291007 0 -1 0
545 9 5 -0.053 6.840595745369951 20.501608764807308 -13.137118808314943 0 -1 0
1069 16 3 0.1268 9.845532804801632 20.041114770786137 -7.896205184344647 0 0 0
959 15 2 0.0265 10.37170985271721 12.465233162625713 -9.51629006900826 0 0 0
963 15 2 -0.1268 10.042186716623036 12.399479547414268 -11.887668681638015 0 0 1
1024 16 5 -0.053 10.422962128875895 20.426074277912207 -13.294572145605432 0 0 1
1029 16 2 -0.1268 11.166524523056157 20.2641628286637 -10.971271455545189 0 0 1
997 15 3 0.1268 11.341187971772788 14.078155287829665 -8.66375108854383 0 0 0
1065 16 3 0.1268 11.953277072826564 19.964858832719273 -8.970524474452567 0 0 0
1087 16 3 0.1268 11.310942434050698 17.912514225350456 -13.603600536269242 0 0 1
797 12 3 0.1268 6.265527167829031 16.99132017894148 -12.88190317446716 0 0 0
596 9 3 0.1268 7.744247861242517 19.525717730767077 -10.896381112256957 0 -1 0
1030 16 2 0.0265 10.525127871763372 19.736616050380867 -12.11529813381049 0 0 1
749 12 5 -0.053 7.0777631023847025 14.514708420874493 -13.369150830898128 0 0 0
1067 16 3 0.1268 9.283530080319704 18.061967022256347 -12.737756324547105 0 0 1
1031 16 2 -0.1268 9.789735401779598 18.521514472108983 -11.873717236942136 0 0 1
798 12 3 0.1268 6.129843417926049 18.005727023380437 -10.460837956166515 0 0 0
961 15 2 -0.1268 11.277166845969324 14.203068728620389 -10.894599555299996 0 0 1
800 12 3 0.1268 7.983200396111441 13.359372700724924 -11.033908380068715 0 0 0
799 12 3 0.1268 7.898615747959914 14.471445788331335 -8.928041661366656 0 0 0
761 12 2 0.0265 7.204585527347556 15.217498129146511 -12.186973531972082 0 0 0
762 12 2 -0.1268 6.7007822389325575 16.551921112040013 -11.98457390854177 0 0 0
763 12 2 -0.1268 6.662778813083985 17.074589519990454 -10.712856217298047 0 0 0
764 12 2 0 6.96687174379889 16.367778415268553 -9.60180409346631 0 0 0
765 12 2 -0.1268 7.528895026798397 15.062370352454538 -9.761270286579252 0 0 0
766 12 2 -0.1268 7.66198989782116 14.487539012373231 -10.982865103236124 0 0 0
1068 16 3 0.1268 9.402837405496907 16.922522488953597 -10.392146507177928 0 0 0
960 15 2 -0.1268 11.096608348545985 13.637021813589497 -9.612217482285466 0 0 0
1021 16 5 -0.053 10.75007855445998 17.710797098358817 -8.323474951621378 0 0 0
1027 16 2 0.0265 10.648854457182487 18.431700402089604 -9.537521144670098 0 0 0
1028 16 2 -0.1268 11.315829525401774 19.585101970840945 -9.77227355632326 0 0 0
1032 16 2 -0.1268 9.825760949785476 17.913782111178207 -10.599369657559603 0 0 0
962 15 2 0.0265 10.794223613302142 13.61151449181497 -12.120931266981362 0 0 1
793 12 3 0.1268 8.236264387109482 16.878250383926222 -14.160456517673047 0 0 0
956 15 5 -0.053 10.901472893623705 14.354205839129252 -13.28232629886408 0 0 1
998 15 3 0.1268 11.781733760763396 15.198395210104716 -10.963065458139155 0 0 1
767 12 1 0.3964 6.746799654243281 17.150825639905776 -8.306310966697282 0 0 0
756 12 2 -0.1268 7.615783903465623 16.35928658671783 -14.92722644331564 0 0 0
755 12 2 0.0265 7.005905618244135 15.181533500093503 -14.590059931824108 0 0 0
1001 15 3 0.1268 9.517026361679843 14.495974383949298 -7.804349869106647 0 0 0
1062 16 2 0.0265 10.49503524695785 19.682211470965477 -14.52335554027431 0 0 1
750 12 4 -0.3964 6.626835719256249 18.378137726047846 -8.366662288813423 0 0 0
1063 16 2 -0.1268 10.917688940783425 18.3773632982585 -14.549978238563604 0 0 1
994 15 2 0.0265 10.819159096820343 13.633602683829283 -14.449492515922046 0 0 1
801 12 3 0.1268 6.015689963775577 14.584076482252476 -7.849813677994459 0 0 0
321 5 3 0.1268 2.6166000207604707 2.1801533805144455 -7.298189561945921 0 0 0
121 2 3 0.1268 -1.329409380228661 2.5848420981749687 -7.2377716936966605 0 0 0
285 5 2 0.0265 3.4966165271314606 0.2471434273987958 -6.596111648686268 0 0 0
128 2 3 0.1268 0.38181366346188295 1.6480879971457787 -0.5492625517395577 0 0 0
99 2 2 -0.1268 -0.030451430653281264 2.698153211186728 -0.4420942505860932 0 0 0
286 5 2 -0.1268 2.92038261862593 1.5542235162786557 -6.457043286539452 0 0 0
297 5 2 -0.1268 3.534872616957842 1.8881981798951726 -0.26990826248034594 0 0 0
20 1 2 0 -0.32418557546515636 -1.9650463338459687 -7.07727321828525 0 0 0
21 1 2 -0.1268 -0.8119407424856757 -3.337229885351265 -6.902836947709686 0 0 0
122 2 3 0.1268 -1.126501128470409 1.5015970438270863 -4.926196797793567 0 0 0
287 5 2 -0.1268 2.770172931314253 2.0435610585262074 -5.184946992188051 0 0 0
290 5 2 -0.1268 3.703707459546335 -0.5472594172008405 -5.422275192934309 0 0 0
322 5 3 0.1268 2.3979171623339353 3.0568913107948577 -5.037460728672295 0 0 0
288 5 2 0 3.0473258810574313 1.2696911466795848 -4.025864150983789 0 0 0
289 5 2 -0.1268 3.5568187012293073 -0.004634303550430374 -4.1094368456794435 0 0 0
323 5 3 0.1268 3.81970381782883 -0.718747359544591 -3.328964099375355 0 0 0
94 2 2 0.0265 -0.4862194714562622 3.3342575635981646 -1.5955207094970092 0 0 0
91 2 2 0.0265 -0.47064043544725176 3.2956345513016467 -3.987345584596122 0 0 0
90 2 2 -0.1268 -0.834827031219108 2.5766563821234083 -5.150319615239921 0 0 0
89 2 2 -0.1268 -0.8738610484630718 3.146603397220461 -6.427094693753279 0 0 0
71 2 5 -0.053 -0.5214274230856395 2.622861684966616 -2.7641239314415422 0 0 0
56 1 3 0.1268 0.4558116774928087 -0.28851976906039045 -5.975257972329448 0 0 0
55 1 3 0.1268 0.503323061211935 -1.4251005980045868 -3.9064606072323365 0 0 0
27 1 2 -0.1268 -1.1154224716620684 -2.070312240995217 -1.9689792883410941 0 0 0
26 1 2 0.0265 -0.523692526663643 -3.3258838506746113 -2.145190084533411 0 0 0
25 1 2 -0.1268 0.13560369766302616 -1.3651543024543398 -5.924428285895308 0 0 0
24 1 2 -0.1268 0.131894627699515 -2.0342406385532232 -4.7141480671858 0 0 0
23 1 2 0.0265 -0.42010717393525443 -3.2949962901474557 -4.538588300517317 0 0 0
291 5 1 0.3964 3.0100016419658724 1.9810753805913475 -2.701038627177379 0 0 0
292 5 2 0 3.0822783482789022 1.1834686144786346 -1.4104754448809285 0 0 0
293 5 2 -0.1268 2.511305408052344 -0.06789096871305222 -1.1896399172936256 0 0 0
325 5 3 0.1268 1.8607060352229485 -0.5006152078983854 -1.9709097050046562 0 0 0
274 5 4 -0.3964 3.0869144363506846 3.202376553963769 -2.639528083154447 0 0 0
324 5 3 0.1268 4.164588204453049 -1.5733574972119757 -5.552365484281779 0 0 0
532 8 3 0.1268 1.8113676702179617 -3.3335808310796744 -5.788418269228464 0 1 0
328 5 3 0.1268 3.9767554882307463 2.970752483388117 -0.40874418956407865 0 0 0
57 1 3 0.1268 -1.5992957983246103 -1.5296759464675813 -2.776237895294777 0 0 0
31 1 2 -0.1268 -0.009126320764124785 -3.9475326631055276 -1.0072562433576877 0 0 0
535 8 3 0.1268 3.951940035787543 -3.2278103118218304 -0.29791769187216843 0 1 0
22 1 2 -0.1268 -0.8539809301454624 -3.943004669744667 -5.714744167410428 0 0 0
28 1 2 -0.1268 -1.0846325511917354 -1.4646066125513095 -0.7225671861264402 0 0 0
58 1 3 0.1268 -1.494694639054821 -0.45772626089571355 -0.5951410504330248 0 0 0
844 13 2 -0.1268 9.865582246016938 -0.08441027892887787 -0.11966510603562774 0 0 0
602 9 3 0.1268 6.064522764696926 0.046831869303640694 -0.5931504537076346 0 0 0
837 13 2 -0.1268 10.891485030156389 -0.1912653073548909 -7.291320321661373 0 0 0
876 13 3 0.1268 10.944628992332023 2.014382025985144 -3.1790919450677713 0 0 0
572 9 2 -0.1268 6.273584534337845 -1.0410598008855314 -0.6265854278185312 0 0 0
564 9 2 0 6.759013542779327 -2.1199547759606494 -6.846638657397273 0 0 0
633 10 2 -0.1268 6.152721142280628 3.095301315261276 -6.852403130987554 0 0 0
565 9 2 -0.1268 6.304120336535917 -3.3993575319232696 -6.69737394760015 0 0 0
601 9 3 0.1268 5.934833750037646 -1.3158239260741675 -2.7769631134178656 0 0 0
672 10 3 0.1268 7.894910560677777 1.335887223789034 -1.1746004724227461 0 0 0
666 10 3 0.1268 5.932686988456336 1.431933960832497 -5.617252253741874 0 0 0
634 10 2 -0.1268 6.25913174504044 2.489051556754549 -5.658104140703834 0 0 0
569 9 2 -0.1268 7.285761872934463 -1.418054891788111 -5.792043192067936 0 0 0
600 9 3 0.1268 7.783958365407978 -0.41219201325206445 -5.913237227322016 0 0 0
847 13 2 -0.1268 10.730179658622916 1.4378076694358466 -2.276550960213358 0 0 0
871 13 3 0.1268 9.632807959235784 1.9406398474898925 -4.35716756180782 0 0 0
638 10 2 0.0265 6.855524845071965 2.9104627791020965 -2.1622637625680827 0 0 0
635 10 2 0.0265 6.851225987171604 3.084306961012258 -4.525168133506535 0 0 0
615 10 5 -0.053 6.963848132064841 2.3133059847891255 -3.383616273732491 0 0 0
599 9 3 0.1268 7.891706752585618 -1.5106254316274614 -3.7081015687334915 0 0 0
571 9 2 -0.1268 6.291810682849125 -1.7085598888281108 -1.8666951270396392 0 0 0
570 9 2 0.0265 6.678444642016064 -3.096596616051664 -1.9184463930292637 0 0 0
568 9 2 -0.1268 7.348745165883248 -2.010747650986046 -4.516777795029659 0 0 0
567 9 2 0.0265 6.81449872279642 -3.2763756832932427 -4.379917643093913 0 0 0
819 13 5 -0.053 10.323694503438798 -0.5302827354808417 -3.726967429129143 0 0 0
838 13 2 -0.1268 10.956076691868512 -0.7096348286087104 -6.0069542140456775 0 0 0
839 13 2 0.0265 10.450388724720344 0.05793452914691244 -4.968878237228102 0 0 0
840 13 2 -0.1268 10.032909392869712 1.3537702473191846 -5.156316257887353 0 0 0
841 13 2 -0.1268 9.983038691680889 1.9136229479117848 -6.448333221474742 0 0 0
842 13 2 0.0265 10.336138883861164 0.10725472167663064 -2.485185549592668 0 0 0
1022 16 4 -0.3964 10.700903273462771 -3.0038026403643725 -3.203112027843469 0 1 0
872 13 3 0.1268 9.394483418438893 2.8586748524934924 -6.557506853368068 0 0 0
873 13 3 0.1268 9.381484216816606 -1.5559124803524544 -1.497656574645685 0 0 0