LAMMPS data file via write_data, version 29 Aug 2024, timestep = 1000000, units = real

2176 atoms
5 atom types
2368 bonds
5 bond types
3776 angles
7 angle types
5632 dihedrals
10 dihedral types
1216 impropers
4 improper types

-2.230135351304794 26.62831535130558 xlo xhi
-4.029836260246805 20.529836260241506 ylo yhi
-15.016963552642425 15.016963552642425 zlo zhi

Atom Type Labels

1 c_0
2 cp
3 hc
4 o_1
5 oc

Bond Type Labels

1 c_0-cp
2 c_0-o_1
3 cp-cp
4 cp-hc
5 cp-oc

Angle Type Labels

1 c_0-cp-cp
2 cp-c_0-cp
3 cp-c_0-o_1
4 cp-cp-cp
5 cp-cp-hc
6 cp-cp-oc
7 cp-oc-cp

Dihedral Type Labels

1 cp-c_0-cp-cp
2 o_1-c_0-cp-cp
3 c_0-cp-cp-cp
4 cp-cp-cp-cp
5 c_0-cp-cp-hc
6 cp-cp-cp-hc
7 hc-cp-cp-hc
8 cp-cp-cp-oc
9 hc-cp-cp-oc
10 cp-cp-oc-cp

Improper Type Labels

1 c_0-cp-cp-cp-nb==3
2 cp-c_0-cp-o_1-nb==3
3 cp-cp-cp-hc-nb==3
4 cp-cp-cp-oc-nb==3

Masses

1 12.01115
2 12.01115
3 1.00797
4 15.9994
5 15.9994

Pair Coeffs # lj/class2/coul/long

1 0.12 3.308
2 0.064 4.01
3 0.02 2.3
4 0.267 3.3
5 0.24 3.535

Bond Coeffs # morse

1 82.6961 2.1 1.489
2 190.966 2.2 1.216
3 150 1.9 1.417
4 98.2315 2.1 1.0982
5 85.5641 2.3 1.3768

Angle Coeffs # class2xe

1 108.4 43.9594 -8.3924 -9.3379
2 110.588 34.6214 -7.0939 -7.4032
3 119.3 65.1016 -17.9766 0
4 118.9 61.0226 -34.9931 0
5 117.94 35.1558 -12.4682 0
6 123.42 73.6781 -21.6787 0
7 109.5 60 0 0

BondBond Coeffs

1 116.348 0 1.489 1.417
2 82.6961 0 1.489 1.489
3 136.831 0 1.489 1.216
4 150 0.477094 1.417 1.417
5 124.116 0.0659451 1.417 1.0982
6 117.782 0.453635 1.417 1.3768
7 85.5641 0 1.3768 1.3768

BondAngle Coeffs

1 82.6961 150 0 0 1.489 1.417
2 82.6961 82.6961 0 0 1.489 1.489
3 82.6961 190.966 0 0 1.489 1.216
4 150 150 0.310219 0.310219 1.417 1.417
5 150 98.2315 0.25822 0.3511 1.417 1.0982
6 150 85.5641 0.441509 0.793248 1.417 1.3768
7 85.5641 85.5641 0 0 1.3768 1.3768

Dihedral Coeffs # class2xe

1 0 0 2.5 0 0 0
2 0 0 0.9063 0 0 0
3 0 0 4.6282 0 0 0
4 8.3667 0 1.1932 0 0 0
5 0 0 2.167 0 0 0
6 0 0 3.9661 0 0 0
7 0 0 1.8769 0 0 0
8 0 0 4.8498 0 0 0
9 0 0 1.7234 0 0 0
10 0 0 1.8 0 0 0

AngleAngleTorsion Coeffs

1 0 110.588 108.4
2 0 119.3 108.4
3 0 108.4 118.9
4 0 118.9 118.9
5 0 108.4 117.94
6 -4.8141 118.9 117.94
7 0.3598 117.94 117.94
8 -21.0247 118.9 123.42
9 4.2296 117.94 123.42
10 0 123.42 109.5

EndBondTorsion Coeffs

1 2.1 1.9 0 0 0 0 0 0 1.489 1.417
2 2.2 1.9 0 0 0 0 0 0 1.216 1.417
3 2.1 1.9 0 0 0 0 0 0 1.489 1.417
4 1.9 1.9 -0.1185 6.3204 0 -0.1185 6.3204 0 1.417 1.417
5 2.1 2.1 0 0 0 0 0 0 1.489 1.0982
6 1.9 2.1 0 -6.8958 0 0 -0.4669 0 1.417 1.0982
7 2.1 2.1 0 -0.689 0 0 -0.689 0 1.0982 1.0982
8 1.9 2.3 0 0.2655 0 0 4.8905 0 1.417 1.3768
9 2.1 2.3 0 -1.5867 0 0 4.2641 0 1.0982 1.3768
10 1.9 2.3 0 0 0 0 0 0 1.417 1.3768

MiddleBondTorsion Coeffs

1 2.1 0 0 0 1.489
2 2.1 0 0 0 1.489
3 1.9 0 0 0 1.417
4 1.9 27.5989 -2.312 0 1.417
5 1.9 0 0 0 1.417
6 1.9 0 -1.1521 0 1.417
7 1.9 0 4.8228 0 1.417
8 1.9 0 4.8255 0 1.417
9 1.9 0 5.5432 0 1.417
10 2.3 0 0 0 1.3768

BondBond13 Coeffs

1 116.348 0 1.489 1.417
2 170.483 0 1.216 1.417
3 116.348 0 1.489 1.417
4 150 0.420317 1.417 1.417
5 90.4638 0 1.489 1.0982
6 124.116 0.158982 1.417 1.0982
7 98.2315 0.0932321 1.0982 1.0982
8 117.782 0.0975929 1.417 1.3768
9 91.8978 0.105655 1.0982 1.3768
10 117.782 0 1.417 1.3768

AngleTorsion Coeffs

1 0 0 0 0 0 0 110.588 108.4
2 0 0 0 0 0 0 119.3 108.4
3 0 0 0 0 0 0 108.4 118.9
4 1.9767 1.0239 0 1.9767 1.0239 0 118.9 118.9
5 0 0 0 0 0 0 108.4 117.94
6 0 2.5014 0 0 2.7147 0 118.9 117.94
7 0 2.4501 0 0 2.4501 0 117.94 117.94
8 0 10.0155 0 0 1.7404 0 118.9 123.42
9 0 1.8729 0 0 2.5706 0 117.94 123.42
10 0 0 0 0 0 0 123.42 109.5

Improper Coeffs # class2

1 10 0
2 38.7949 0
3 4.8912 0
4 13.0421 0

AngleAngle Coeffs

1 0 0 0 108.4 118.9 108.4
2 0 0 0 110.588 119.3 119.3
3 0 0 0 118.9 117.94 117.94
4 0 0 0 118.9 123.42 123.42

Atoms # full

13 1 2 0.0265 -0.11988384486647874 -2.9225049606570135 -11.905346057791945 0 0 0
14 1 2 -0.1268 -0.6036415204511969 -1.6178704910545 -11.794560358350612 0 0 0
15 1 2 -0.1268 -0.7839458680648625 -1.0887052365595853 -10.508213676889111 0 0 0
16 1 2 0 -0.455107300616749 -1.788017285135552 -9.326910516860483 0 0 0
17 1 2 -0.1268 0.12635474523239898 -3.081825631013836 -9.487235805545273 0 0 0
45 1 3 0.1268 0.912433889330774 -1.1489673735179786 -13.805546652089149 0 0 0
69 2 5 -0.053 -0.14502331295214654 2.3138443199175995 -12.885870942401251 0 0 0
120 2 3 0.1268 0.8260455001825804 1.391347326704576 -10.472266785212087 0 0 0
81 2 2 0.0265 -0.1804757263871184 3.003007991157175 -11.713241321472417 0 0 0
86 2 2 -0.1268 0.274359245765472 2.371368053048996 -10.545450737708233 0 0 0
85 2 2 -0.1268 0.18723805951390693 3.033091507056472 -9.342869916348349 0 0 0
279 5 2 0.0265 3.567790740706199 0.20048569225596147 -9.091455445123236 0 0 0
280 5 2 -0.1268 4.049841330305316 1.4614652533191794 -9.256605952442875 0 0 0
284 5 2 -0.1268 2.901517396656847 -0.39317918626642046 -10.183643341082629 0 0 0
281 5 2 -0.1268 3.951686699581537 2.017242849754207 -10.528002956589699 0 0 1
320 5 3 0.1268 2.641313510549815 -1.435984925316819 -9.941231973835599 0 0 0
119 2 3 0.1268 0.5468122377548261 2.5219088273228127 -8.408615641743646 0 0 0
283 5 2 -0.1268 2.660643037349443 0.23022561242653516 -11.424118671387369 0 0 1
282 5 2 0.0265 3.3209798855160537 1.4453919135798916 -11.623577529550973 0 0 1
319 5 3 0.1268 2.2797577812935605 -0.24976835849001056 -12.369897132395394 0 0 1
276 5 5 -0.053 3.259802697888923 2.1643247193581763 -12.861662856579853 0 0 1
339 5 3 0.1268 4.0763768851998785 -0.38534069008523275 -13.244264407985517 0 0 1
49 1 3 0.1268 -1.0164440593986332 -1.0891466558163243 -12.714449232687747 0 0 0
75 2 2 0.0265 -0.14459825789584535 2.945756438847382 -14.131547116180512 0 0 0
318 5 3 0.1268 4.433097013861599 3.006545067162528 -10.67562092503531 0 0 1
50 1 3 0.1268 -1.3399526643467843 -0.1526493997554743 -10.288357626255127 0 0 0
526 8 3 0.1268 4.235151697328631 -3.5487210043728545 -10.652182954625626 0 1 0
317 5 3 0.1268 4.543541018855511 1.984137327169888 -8.427260783815882 0 0 0
273 5 5 -0.053 3.688721318209769 -0.5378730953585205 -7.91826253665771 0 0 0
19 1 1 0.3964 -0.6355255190098827 -1.0791915563672534 -8.023940797924894 0 0 0
2 1 4 -0.3964 -0.9047709091872114 0.10122702849704623 -7.975401590899431 0 0 0
478 8 4 -0.3964 3.359390089137422 -3.1034858911001457 -8.374947468362402 0 1 0
51 1 3 0.1268 0.4797970743628941 -3.664741050198136 -8.605576526659467 0 0 0
18 1 2 -0.1268 0.25825980834910034 -3.6250903190057344 -10.755730334630485 0 0 0
7 1 2 0.0265 -0.1270857100266083 -2.9907259085877147 -14.273585397271171 0 0 0
1 1 5 -0.053 -0.10603928567159926 -3.6383660742797566 -13.068894905639278 0 0 0
8 1 2 -0.1268 0.3373475372858641 -1.7045352020745907 -14.554872090861027 0 0 0
314 5 2 0.0265 3.2120529647237603 1.4683280215123515 -14.042148911185082 0 0 1
315 5 2 -0.1268 3.7705428732647794 0.16206791361738748 -14.111972902432921 0 0 1
593 9 3 0.1268 5.921170628738448 -1.340060122054488 -12.897588766343528 0 0 0
594 9 3 0.1268 6.1248002416734995 -0.2132003359381156 -10.640379521840817 0 0 0
557 9 2 0.0265 6.609972618672071 -3.318175770278102 -12.196708416131607 0 0 0
558 9 2 -0.1268 6.230205113204281 -1.9436361878100796 -12.024294907028706 0 0 0
559 9 2 -0.1268 6.323763262709033 -1.2919411701386947 -10.808867942122685 0 0 0
560 9 2 0 6.806974614064696 -2.0400297572075052 -9.692109818300434 0 0 0
561 9 2 -0.1268 7.074450944507644 -3.4207149402679358 -9.78374637648739 0 0 0
664 10 3 0.1268 7.655475933763981 1.1765457611511785 -11.211043749795426 0 0 0
663 10 3 0.1268 7.703088808850806 2.1826068214903858 -9.001520781849596 0 0 0
630 10 2 -0.1268 7.4469466324959335 2.219827090783503 -11.11009007540718 0 0 0
629 10 2 -0.1268 7.4378928621578275 2.837957041109939 -9.855666527906735 0 0 0
817 13 5 -0.053 10.270925291344843 -0.6373338774721389 -13.401947230650585 0 0 0
829 13 2 0.0265 10.376127115188961 0.0198015641667606 -12.172146978687325 0 0 0
830 13 2 -0.1268 10.90244548526176 1.325508655687007 -12.023905173677422 0 0 0
831 13 2 -0.1268 11.030141967254785 1.9540506413129286 -10.761640956472828 0 0 0
832 13 2 0 10.620550446601953 1.252872409957849 -9.592455642151112 0 0 0
833 13 2 -0.1268 10.210346985571912 -0.08220635916300267 -9.702377696724728 0 0 0
834 13 2 -0.1268 10.123506209046898 -0.6831491719200358 -10.976750854516684 0 0 0
868 13 3 0.1268 9.901945791023946 -1.779169329534736 -10.935180333650276 0 0 0
625 10 2 0.0265 6.904882508705283 2.9197311141027926 -12.222818736853059 0 0 0
867 13 3 0.1268 9.703003672582197 -0.6242798099432227 -8.915504264957518 0 0 0
589 9 3 0.1268 7.7995566517840125 -1.4421370468417116 -13.970008701199147 0 0 0
613 10 5 -0.053 6.745271198939264 2.2403654475224117 -13.401800418535315 0 0 0
563 9 1 0.3964 7.059292744521237 -1.3075264786014298 -8.388428192940943 0 0 0
861 13 3 0.1268 9.491803759095873 1.8814801490744744 -13.856430589477808 0 0 0
818 13 4 -0.3964 10.746217500519908 3.228941989451921 -8.411291536049783 0 0 0
835 13 1 0.3964 10.584375871039644 2.0496079190590386 -8.337020732251503 0 0 0
546 9 4 -0.3964 7.27905790091814 -0.11684958424056413 -8.389495904412225 0 0 0
866 13 3 0.1268 11.289336881765639 2.9748180136178 -10.729969866516946 0 0 0
865 13 3 0.1268 11.28877199329866 1.8333290398189606 -12.942595890437534 0 0 0
1066 16 3 0.1268 11.60873206455946 -3.502288356522759 -11.152373353347743 0 1 1
551 9 2 0.0265 6.642474104040424 -3.237462016850773 -14.60464633719826 0 0 0
665 10 3 0.1268 6.1689163172425125 2.133194785980659 -7.55971404853354 0 0 0
545 9 5 -0.053 6.551677385501261 -3.9706690782933642 -13.417960817378717 0 0 0
619 10 2 0.0265 6.875045939869507 2.799268767493796 -14.68174595710653 0 0 0
823 13 2 0.0265 10.362331545970402 0.03426678602646227 -14.599081449174049 0 0 0
597 9 3 0.1268 5.744956329480159 -3.716986941187494 -7.679802470397925 0 0 0
869 13 3 0.1268 11.236997664737753 -0.6362105344067186 -7.631493798300598 0 0 0
824 13 2 -0.1268 9.891035863127255 1.3321870074473425 -14.71825517187238 0 0 0
552 9 2 -0.1268 7.344585595180657 -2.020188151932446 -14.790911428291212 0 0 0
628 10 2 0 6.838275644475171 4.110687852710065 -9.748657527699212 0 0 0
620 10 2 -0.1268 7.403710587865026 4.116055480991044 -14.832599037067409 0 0 0
76 2 2 -0.1268 0.38885842106455604 4.2459857818343 -14.281382780191691 0 0 0
84 2 2 0 -0.45861439402059867 4.227117706706917 -9.121435508730285 0 0 0
82 2 2 -0.1268 -0.7660781133299459 4.2790809732518795 -11.55418003308342 0 0 0
383 6 2 -0.1268 3.9498210636665236 6.07857658150488 -14.536517429392243 0 0 1
144 3 2 -0.1268 0.2766624126203898 10.195097442608596 -14.472046790842196 0 0 0
388 6 3 0.1268 2.2408234137697427 4.624592633500743 -10.68056026512436 0 0 0
117 2 3 0.1268 -1.186156910017758 4.791070504469689 -12.42816192997655 0 0 0
113 2 3 0.1268 0.7888083104557828 4.837755005130202 -13.421043754267723 0 0 0
83 2 2 -0.1268 -0.8973918677283248 4.856134772467408 -10.292762460603477 0 0 0
347 6 2 0.0265 3.2690716631258887 6.140936627759524 -9.460715994906248 0 0 0
352 6 2 -0.1268 2.769653794278968 5.573094364060305 -10.616676903789795 0 0 0
188 3 3 0.1268 0.5469794808961774 7.362135172726507 -11.002034978601099 0 0 0
348 6 2 -0.1268 3.8800565686440684 7.395311129654379 -9.638454071230658 0 0 0
181 3 3 0.1268 0.8324231030260201 10.662985795584156 -13.607007863272297 0 0 0
154 3 2 -0.1268 0.13380289323074424 8.319152391781104 -10.737910158634032 0 0 0
153 3 2 -0.1268 0.1975369789761925 8.986865052311174 -9.539619148405427 0 0 0
152 3 2 0 -0.13146500700242658 10.344803074945318 -9.456860983814627 0 0 0
151 3 2 -0.1268 -0.5126897090773397 11.010358004490213 -10.638894385958002 0 0 0
150 3 2 -0.1268 -0.5897274012618419 10.314864554411866 -11.789759495597892 0 0 0
149 3 2 0.0265 -0.25145893298429156 8.95100815797757 -11.902144304177835 0 0 0
137 3 5 -0.053 -0.30809859359999403 8.289822783893912 -13.092009759333497 0 0 0
409 7 5 -0.053 3.4679309768426148 11.423258436429006 -13.512828415449283 0 0 0
426 7 2 -0.1268 2.9627933645903424 11.27906062144 -11.142281958567976 0 0 0
460 7 3 0.1268 2.765182082008102 10.17625063438043 -11.334457225969041 0 0 0
349 6 2 -0.1268 3.9417494182252426 8.046287102990261 -10.850185414120409 0 0 1
351 6 2 -0.1268 2.9628602721427653 6.063519549233613 -11.888056717616093 0 0 1
350 6 2 0.0265 3.481605549559739 7.359011634173491 -11.9738171525606 0 0 1
187 3 3 0.1268 0.44568089857005777 8.392370007210733 -8.65424086944935 0 0 0
387 6 3 0.1268 2.434574882266827 5.644496972917533 -12.775866904736352 0 0 1
344 6 5 -0.053 3.574487388083047 8.043964171967946 -13.225512833707892 0 0 1
459 7 3 0.1268 2.8268957784298117 11.352810764665195 -8.961868551298753 0 0 0
341 6 5 -0.053 3.1208026362149353 5.342803978502685 -8.337255779923414 0 0 0
407 6 3 0.1268 4.123809316147932 5.438878243580806 -13.635982257943851 0 0 1
185 3 3 0.1268 -0.9190067592420996 10.842051902630757 -12.704578172039499 0 0 0
385 6 3 0.1268 4.376286820880818 7.836777233185492 -8.7304338023016 0 0 0
382 6 2 0.0265 3.5591190407892412 7.427296045260931 -14.442174100810245 0 0 1
70 2 4 -0.3964 -0.5522034795003856 6.232331564413917 -7.82249901992991 0 0 0
143 3 2 0.0265 -0.197071072903662 8.91128357651397 -14.290414665409589 0 0 0
118 2 3 0.1268 -1.2037489397569863 5.878163218584664 -10.371715499853138 0 0 0
87 2 1 0.3964 -0.43766589192284044 5.019814602292522 -7.772982418686832 0 0 0
386 6 3 0.1268 4.223109276620889 9.072165854441032 -11.051572412409815 0 0 1
155 3 1 0.3964 -0.12344815710386525 11.149112426735524 -8.16492965653624 0 0 0
186 3 3 0.1268 -1.058490294592947 11.94664746554926 -10.603696822620288 0 0 0
389 6 3 0.1268 2.7497992133237226 8.012661305203256 -7.694376287222001 0 0 0
415 7 2 0.0265 3.294222748534768 12.119678652959331 -14.723134678632887 0 0 0
425 7 2 -0.1268 2.8732839053366 11.886867828251546 -9.90806105129927 0 0 0
421 7 2 0.0265 3.185002191698163 12.07257612031565 -12.323799755294587 0 0 0
189 3 3 0.1268 -1.3549830716244973 8.688068647503052 -7.612470132651562 0 0 0
892 14 2 -0.1268 9.722289390191811 7.118689331599882 -14.654828833275404 0 0 0
688 11 2 -0.1268 7.1643927994562375 10.451244388481362 -14.79837056742176 0 0 0
936 14 3 0.1268 9.555127719447304 4.3727121827181055 -10.897679231140867 0 0 0
626 10 2 -0.1268 6.46505226169954 4.2720178129063555 -12.102959867459578 0 0 0
657 10 3 0.1268 7.828402565042378 4.621852808601071 -13.958314567341 0 0 0
661 10 3 0.1268 5.77208169010729 4.746090803175671 -12.845056577700337 0 0 0
627 10 2 -0.1268 6.335408758609734 4.832562704528959 -10.854226957869678 0 0 0
662 10 3 0.1268 5.9626778633869115 5.859523054400261 -10.653515701203506 0 0 0
885 14 5 -0.053 10.28901791720884 5.2110369763665165 -13.228459350864304 0 0 0
897 14 2 0.0265 10.167464006180966 6.070761885500515 -12.05482653635205 0 0 0
901 14 2 -0.1268 9.885360011843728 6.0078990208531575 -9.660128774575305 0 0 0
902 14 2 -0.1268 9.792134265905059 5.422507461317588 -10.877452674388019 0 0 0
732 11 3 0.1268 7.451385295167265 7.5751696331883505 -11.256588794477231 0 0 0
898 14 2 -0.1268 10.559670549624672 7.378122516262488 -11.983671639478706 0 0 0
899 14 2 -0.1268 10.66448637901583 8.083347734255046 -10.770282384913909 0 0 0
900 14 2 0 10.301900489955337 7.369447207493447 -9.594978940313705 0 0 0
698 11 2 -0.1268 7.031719929470084 8.616923394980743 -11.075672433958262 0 0 0
697 11 2 -0.1268 6.93988877138451 9.157152248356745 -9.78096930779521 0 0 0
696 11 2 0 6.646635967893371 10.505435046671838 -9.58531567557803 0 0 0
694 11 2 -0.1268 6.19328042330743 10.637011513386776 -12.011325748975342 0 0 0
693 11 2 0.0265 6.533172480924076 9.259805990448976 -12.189611898737416 0 0 0
681 11 5 -0.053 6.481272887470526 8.51315615013488 -13.376702174077966 0 0 0
1000 15 3 0.1268 9.314146842155772 10.929315437234088 -11.055996055407316 0 0 0
729 11 3 0.1268 5.839319102413095 11.254417419541028 -12.861356223844073 0 0 0
695 11 2 -0.1268 6.248169423726896 11.209879686230064 -10.7136305014192 0 0 0
725 11 3 0.1268 7.486495537798243 11.033272585400033 -13.916639222748977 0 0 0
935 14 3 0.1268 9.544576790988081 5.500906233561814 -8.722459768937355 0 0 0
731 11 3 0.1268 7.337101664042567 8.523824030596664 -8.968702941940595 0 0 0
929 14 3 0.1268 9.25770454000591 7.661656875933501 -13.799470388730677 0 0 0
631 10 1 0.3964 6.828286533938751 4.892137936217344 -8.424408941580246 0 0 0
614 10 4 -0.3964 6.8082720246295185 6.086098657888622 -8.43067570872909 0 0 0
699 11 1 0.3964 6.797586419020238 11.216916650052134 -8.19793452676188 0 0 0
903 14 1 0.3964 10.359678156001436 8.082589386140501 -8.31057663886557 0 0 0
886 14 4 -0.3964 10.378767364389994 9.325757653736181 -8.26834180235931 0 0 0
953 15 5 -0.053 10.011661021892564 11.974375933386638 -8.801630045744588 0 0 0
933 14 3 0.1268 10.835374300441737 7.9664815929552795 -12.911367752152353 0 0 0
964 15 2 -0.1268 9.618064707145178 11.9622133787767 -11.114463070100925 0 0 0
934 14 3 0.1268 11.10153488709636 9.102184820311816 -10.721000887477633 0 0 0
1019 15 3 0.1268 11.10807220247532 11.781001970943214 -14.176601301530853 0 0 1
687 11 2 0.0265 6.631513575971869 9.136449352953589 -14.613564882822713 0 0 0
999 15 3 0.1268 9.064379950760854 11.971566153156727 -13.235617116074541 0 0 1
891 14 2 0.0265 10.39555666703284 5.875936671390665 -14.436716277767816 0 0 0
730 11 3 0.1268 5.902884382870566 12.19930946447242 -10.69663850980405 0 0 0
733 11 3 0.1268 5.900307044181197 8.53083417300083 -7.662633257151758 0 0 0
937 14 3 0.1268 11.303531719475723 5.558134367391698 -7.770211812389144 0 0 0
138 3 4 -0.3964 -0.1091510374643665 12.368603109179668 -8.11670087937189 0 0 0
495 8 1 0.3964 3.1255241074430566 20.266265328150993 -8.432415193135911 0 0 0
525 8 3 0.1268 4.26101375128062 20.0541846488614 -12.847659865210096 0 0 0
491 8 2 -0.1268 3.714984143770443 20.04973745206845 -10.81621853526095 0 0 0
483 8 2 0.0265 3.209677970301663 18.123608720709846 -14.61468872046177 0 0 0
521 8 3 0.1268 2.549125007122645 20.13295521931085 -13.986267920180502 0 0 0
52 1 3 0.1268 0.8163959046582474 19.9998946564654 -10.852538750994126 0 -1 0
256 4 3 0.1268 0.5283124408093154 13.617585806263568 -11.234777071699323 0 0 0
205 4 5 -0.053 -0.5767086870467477 14.4840821203564 -13.479008338885347 0 0 0
217 4 2 0.0265 -0.4975342061638204 15.221886805337482 -12.316126847723542 0 0 0
219 4 2 -0.1268 -0.9897483229533137 17.14453361614715 -10.956677084693931 0 0 0
220 4 2 0 -0.49983512992754764 16.4689868022702 -9.861195523020587 0 0 0
221 4 2 -0.1268 0.011569049576836576 15.19949576940031 -10.007086594202772 0 0 0
222 4 2 -0.1268 -0.03474189444252085 14.576407651560531 -11.195882271696515 0 0 0
528 8 3 0.1268 2.096807503581344 16.609266719942944 -11.277745516958865 0 0 0
422 7 2 -0.1268 3.5987372460066798 13.380066635913943 -12.123387548929651 0 0 0
423 7 2 -0.1268 3.439262480090224 13.981535061123177 -10.865590312072685 0 0 0
424 7 2 0 3.2279485599115834 13.197269244704335 -9.719166120673197 0 0 0
453 7 3 0.1268 2.003298670959186 13.579041310172565 -13.933791348289141 0 0 0
489 8 2 0.0265 3.24220500533579 18.195130188226237 -12.233298751882561 0 0 0
490 8 2 -0.1268 3.8636630063005866 19.440314933335856 -12.060769288656045 0 0 0
492 8 2 0 3.0830738264909012 19.54398122652691 -9.727871794735401 0 0 0
493 8 2 -0.1268 2.6030335139799687 18.23838973335379 -9.88962716221414 0 0 0
494 8 2 -0.1268 2.6626919111285483 17.560441664862765 -11.08579550105951 0 0 0
218 4 2 -0.1268 -1.0071112034454484 16.530339593268806 -12.18007706065045 0 0 0
477 8 5 -0.053 3.2514507926178107 17.468450122168086 -13.402583946723817 0 0 0
255 4 3 0.1268 0.4235525730372056 14.646611044980174 -9.127287804523611 0 0 0
527 8 3 0.1268 2.206739278571824 17.60820532229078 -9.13006691347244 0 0 0
249 4 3 0.1268 0.6553149390993109 17.05696669454901 -14.064199079586418 0 0 0
458 7 3 0.1268 3.87180664475488 14.990778868513248 -10.775697367789023 0 0 0
457 7 3 0.1268 3.8026792451208333 14.04363810132711 -13.037650604816953 0 0 0
410 7 4 -0.3964 3.2682214065916524 15.203722487833515 -8.436550029520728 0 0 0
427 7 1 0.3964 3.165694811385988 13.975440855381775 -8.41279509116783 0 0 0
223 4 1 0.3964 -0.5257187988326537 17.203578058304778 -8.571496228134425 0 0 0
206 4 4 -0.3964 -0.6907036225272818 18.40791347300847 -8.572925574251464 0 0 0
253 4 3 0.1268 -1.5114562212038547 17.06070474258513 -13.008992681440695 0 0 0
254 4 3 0.1268 -1.3750672158999366 18.171006989244617 -10.84587736682739 0 0 0
211 4 2 0.0265 -0.5773962335060074 15.240295138338416 -14.663291034285287 0 0 0
416 7 2 -0.1268 2.4989672334491333 13.26169720892432 -14.821676416854633 0 0 0
212 4 2 -0.1268 0.11971581114092267 16.425351292148797 -14.850781351321123 0 0 0
484 8 2 -0.1268 2.770054265992065 19.429827941351853 -14.842919586233196 0 0 0
257 4 3 0.1268 -1.4382555443718696 14.534059743234065 -7.79083941683773 0 0 0
529 8 3 0.1268 3.632921556786269 17.586122690250406 -7.916610085128225 0 0 0
595 9 3 0.1268 7.22974247714237 20.40152124092136 -9.014625328789645 0 -1 0
562 9 2 -0.1268 6.913959005772519 20.509282341343262 -11.006815411577627 0 -1 0
682 11 4 -0.3964 6.78481703387431 12.439950284872337 -8.066464571893924 0 0 0
959 15 2 0.0265 10.069149301475782 12.63808832047435 -9.975882204532997 0 0 0
963 15 2 -0.1268 9.572112101816554 12.530302250390887 -12.390231291384922 0 0 1
1024 16 5 -0.053 10.196324657772465 20.363531716000303 -13.410550918859412 0 0 1
1063 16 2 -0.1268 10.976493252985325 18.467858265274693 -14.800843182231239 0 0 1
1065 16 3 0.1268 11.505901062456452 19.790859985852933 -9.077425663467869 0 0 0
1029 16 2 -0.1268 10.992100480044053 20.121621547540116 -11.132928960413084 0 0 1
997 15 3 0.1268 11.020499183676538 14.471693747023698 -9.329682938887325 0 0 0
1062 16 2 0.0265 10.269995887795186 19.714766412663415 -14.59296655951333 0 0 1
1087 16 3 0.1268 11.552484810257772 18.029051835278757 -13.943610657582157 0 0 1
797 12 3 0.1268 5.867129783276598 17.103446887272845 -13.032350499921574 0 0 0
596 9 3 0.1268 7.025101519600872 19.419818881870626 -11.082655067548082 0 -1 0
1030 16 2 0.0265 10.312555925444673 19.60401278621461 -12.24378215106987 0 0 1
749 12 5 -0.053 6.839277952237838 14.718737052793566 -13.4023030611499 0 0 0
1067 16 3 0.1268 9.059149170561312 17.930145761413776 -12.952548784065623 0 0 1
1031 16 2 -0.1268 9.642324708535913 18.349612648307698 -12.104641873833511 0 0 1
798 12 3 0.1268 5.502809299272844 18.158839550330512 -10.719839750518585 0 0 0
961 15 2 -0.1268 10.767725245387908 14.40980207061608 -11.362767497354952 0 0 1
800 12 3 0.1268 7.373253049685328 13.56934135531686 -11.115153786323893 0 0 0
799 12 3 0.1268 7.038139663822756 14.482733421700678 -8.935923265821954 0 0 0
761 12 2 0.0265 6.563840845787942 15.301456241466044 -12.19510456538417 0 0 0
762 12 2 -0.1268 6.134803967298742 16.610732009475235 -12.099985873013413 0 0 0
763 12 2 -0.1268 5.980588185094833 17.1770855873456 -10.868001842659869 0 0 0
764 12 2 0 6.312452339610342 16.480371155645543 -9.687447280171877 0 0 0
765 12 2 -0.1268 6.851782992517482 15.169021802524417 -9.781861728272762 0 0 0
766 12 2 -0.1268 6.975247328729562 14.619181714408127 -11.0750227469093 0 0 0
1068 16 3 0.1268 9.133234722248474 16.684793208368937 -10.784308189762857 0 0 0
960 15 2 -0.1268 10.612807107686558 13.905945634939735 -10.12224363431572 0 0 0
1021 16 5 -0.053 10.267321537718285 17.51620868449306 -8.539905330268155 0 0 0
1027 16 2 0.0265 10.344728108689907 18.158139465950725 -9.768084929122843 0 0 0
1028 16 2 -0.1268 10.972507557104642 19.431824340609317 -9.913922684854038 0 0 0
1032 16 2 -0.1268 9.675638140798268 17.645795833470615 -10.879675600732824 0 0 0
962 15 2 0.0265 10.240905764213537 13.748693791980015 -12.528850169079156 0 0 1
793 12 3 0.1268 7.795981408105272 17.222423191196867 -13.983958431856372 0 0 0
956 15 5 -0.053 10.394785514817052 14.41812515522622 -13.762113597969783 0 0 1
998 15 3 0.1268 11.375111618142336 15.26711975587815 -11.581247278828272 0 0 1
767 12 1 0.3964 6.289405602293169 17.235808315012626 -8.40404657414641 0 0 0
755 12 2 0.0265 6.770041822282325 15.3868873535587 -14.627871771047387 0 0 0
750 12 4 -0.3964 6.096701696690458 18.455369735518893 -8.38457095359487 0 0 0
994 15 2 0.0265 10.313011015369533 13.666757508687455 -14.921493467940333 0 0 1
756 12 2 -0.1268 7.368685012153032 16.65776590080958 -14.818808225101034 0 0 0
1069 16 3 0.1268 9.437940523400085 19.909102796450227 -8.06909571541572 0 0 0
1001 15 3 0.1268 9.185176015509255 14.406474635365308 -8.171484283690628 0 0 0
801 12 3 0.1268 5.549082198672176 14.440668469038544 -7.594547685569877 0 0 0
965 15 2 0.0265 10.122891702504413 12.643823065196466 -7.573434101225208 0 0 0
321 5 3 0.1268 2.2898700981096827 1.7917030970136594 -7.238582333409248 0 0 0
297 5 2 -0.1268 3.865396000947565 1.7031677846364497 -0.2815341271544529 0 0 0
53 1 3 0.1268 -1.4383230993233953 -3.682562710195833 -7.414385836893287 0 0 0
121 2 3 0.1268 -1.2259969142347813 2.4232859429994145 -7.126255845196088 0 0 0
285 5 2 0.0265 3.3904336370322117 -0.04404675320730744 -6.674844636402332 0 0 0
128 2 3 0.1268 0.852435958473627 1.2523494917325406 -0.4351455140689229 0 0 0
286 5 2 -0.1268 2.718760310771027 1.1461264429777973 -6.479382148581086 0 0 0
58 1 3 0.1268 -1.5388272588143135 -0.4083282524618417 -0.21860832231086214 0 0 0
20 1 2 0 -0.4786113517635 -1.8981772047922973 -6.74589506234444 0 0 0
21 1 2 -0.1268 -0.9540542870634783 -3.221482316038899 -6.549384029945129 0 0 0
122 2 3 0.1268 -1.2654563981467173 1.3142267424353289 -5.048826439304438 0 0 0
287 5 2 -0.1268 2.6380337876117927 1.7372154985703396 -5.19378013990187 0 0 0
290 5 2 -0.1268 3.892646362617082 -0.7421680053623683 -5.5385893980927 0 0 0
322 5 3 0.1268 2.129829209450385 2.6129742763707977 -5.090118706868148 0 0 0
288 5 2 0 3.1982917710272076 1.1203089537324677 -4.029214861601654 0 0 0
289 5 2 -0.1268 3.7861710915308313 -0.11509333677143374 -4.238975398654208 0 0 0
323 5 3 0.1268 4.275113045666362 -0.5823146213862826 -3.3930925590239553 0 0 0
94 2 2 0.0265 -0.15408300234111394 2.913606741562031 -1.556028866679343 0 0 0
91 2 2 0.0265 -0.3165096354600567 3.0073574119060904 -3.942749681623619 0 0 0
90 2 2 -0.1268 -0.8357760056366856 2.354011977292033 -5.029407732289844 0 0 0
89 2 2 -0.1268 -0.8432475949632883 2.9897043185000545 -6.2467514653502185 0 0 0
71 2 5 -0.053 -0.1635054217513492 2.3029348981734596 -2.7367586101389882 0 0 0
56 1 3 0.1268 0.6610177512167548 -0.3208920196125704 -5.940780371639816 0 0 0
55 1 3 0.1268 0.7181259117826393 -1.2654225014609848 -3.6073613865232517 0 0 0
27 1 2 -0.1268 -0.8909544528652622 -1.9487360429997573 -1.5905310716230492 0 0 0
26 1 2 0.0265 -0.2243183188297988 -3.121767366798152 -1.7927494468676812 0 0 0
25 1 2 -0.1268 0.11140811050347521 -1.2524736327679342 -5.672894399231623 0 0 0
24 1 2 -0.1268 0.24545404014639427 -1.822655152094549 -4.409537132212945 0 0 0
23 1 2 0.0265 -0.33072455574760995 -3.104342830237051 -4.1668910409161715 0 0 0
291 5 1 0.3964 3.1496200835715973 1.8168087957165584 -2.6466051035063654 0 0 0
292 5 2 0 3.3147917768742685 1.0132802316462932 -1.4027201720654574 0 0 0
293 5 2 -0.1268 2.816331669463504 -0.2475502080623797 -1.291590957704928 0 0 0
325 5 3 0.1268 2.480224687431483 -0.8306495138624039 -2.1817484031092995 0 0 0
274 5 4 -0.3964 3.1435883904576976 3.0022662777164353 -2.5942286049084906 0 0 0
324 5 3 0.1268 4.406579300384038 -1.6780102751531558 -5.6975333732079925 0 0 0
532 8 3 0.1268 2.482989898165525 -3.1925718914778605 -6.093726326253664 0 1 0
99 2 2 -0.1268 0.3250946095341405 2.2611940395863606 -0.4194521301095797 0 0 0
31 1 2 -0.1268 0.35211453442817753 -3.7616667053805832 -0.6908021930908959 0 0 0
3 1 5 -0.053 -0.2514572161891728 -3.7977408736316436 -3.000168265744211 0 0 0
57 1 3 0.1268 -1.3851299847413945 -1.5919081370990984 -2.5238289968892396 0 0 0
28 1 2 -0.1268 -1.0049534022697448 -1.3701326010510395 -0.32684723130732074 0 0 0
22 1 2 -0.1268 -0.8230649027117645 -3.765583715612437 -5.266990157306273 0 0 0
535 8 3 0.1268 4.511465785258352 -3.6311887631673176 -0.9001282246273679 0 1 0
392 6 3 0.1268 3.4799027903764985 4.085842374496361 -5.9551726548849615 0 0 0
95 2 2 -0.1268 -0.7948240496108108 4.138599817072514 -1.3688471359435646 0 0 0
294 5 2 -0.1268 2.8253541302179324 -0.8853399151531978 -0.0683489728246478 0 0 0
328 5 3 0.1268 4.2743379956725605 2.746597636889927 -0.46413457129266433 0 0 0
326 5 3 0.1268 2.379956794727696 -1.9010789568781967 -0.07840296138711622 0 0 0
836 13 2 0 10.596144440481268 1.3618733808524182 -6.974900369403477 0 0 0
875 13 3 0.1268 11.388426319314004 3.1087386861804234 -0.3382480044362257 0 0 0
633 10 2 -0.1268 6.534940875540293 2.8889528341848543 -6.873181066591602 0 0 0
876 13 3 0.1268 11.275361896053843 1.9723998427166496 -2.7767577212450067 0 0 0
846 13 2 -0.1268 10.788427366207387 2.2359296013191097 -0.6310582145135513 0 0 0
837 13 2 -0.1268 11.042672361174903 0.07872863704817501 -6.815424607506017 0 0 0
564 9 2 0 6.900867897178159 -1.9896642540397087 -7.0232305173120455 0 0 0
565 9 2 -0.1268 6.234892969917464 -3.193253940077888 -6.848316978982272 0 0 0
601 9 3 0.1268 5.8338829914053765 -1.4196542830594594 -2.8589149797453004 0 0 0
672 10 3 0.1268 7.891155454588837 1.7468481964848763 -0.8394009016884905 0 0 0
666 10 3 0.1268 6.1736215208769085 1.3419601954241456 -5.373446299110755 0 0 0
634 10 2 -0.1268 6.62053351549905 2.3861549445898413 -5.536366836607424 0 0 0
569 9 2 -0.1268 7.4820835625966655 -1.40353720957359 -5.93455701745234 0 0 0
600 9 3 0.1268 8.163636190057497 -0.49892708331806723 -5.895984444455538 0 0 0
847 13 2 -0.1268 10.792259054366257 1.6428735223253472 -1.8773887266997313 0 0 0
871 13 3 0.1268 9.703253338179147 2.265749579273134 -3.8782343471743665 0 0 0
638 10 2 0.0265 6.9142355458556715 3.3091462969318997 -2.049562739434494 0 0 0
635 10 2 0.0265 7.051342055644332 3.180754699660711 -4.461984708684517 0 0 0
615 10 5 -0.053 7.191452474726617 2.656767030525045 -3.193935118214524 0 0 0
599 9 3 0.1268 8.02469133573801 -1.5863637152167778 -3.8339498436284707 0 0 0
571 9 2 -0.1268 6.2092073782651855 -1.950582946958828 -2.0125990555382014 0 0 0