LAMMPS data file via write_data, version 29 Aug 2024, timestep = 4400000, units = real

2176 atoms
5 atom types
2368 bonds
5 bond types
3776 angles
7 angle types
5632 dihedrals
10 dihedral types
1216 impropers
4 improper types

-2.2558504583070853 26.65403045830851 xlo xhi
-4.052339349127752 20.552339349130808 ylo yhi
-15.030691210630422 15.030691210630422 zlo zhi

Atom Type Labels

1 c_0
2 cp
3 hc
4 o_1
5 oc

Bond Type Labels

1 c_0-cp
2 c_0-o_1
3 cp-cp
4 cp-hc
5 cp-oc

Angle Type Labels

1 c_0-cp-cp
2 cp-c_0-cp
3 cp-c_0-o_1
4 cp-cp-cp
5 cp-cp-hc
6 cp-cp-oc
7 cp-oc-cp

Dihedral Type Labels

1 cp-c_0-cp-cp
2 o_1-c_0-cp-cp
3 c_0-cp-cp-cp
4 cp-cp-cp-cp
5 c_0-cp-cp-hc
6 cp-cp-cp-hc
7 hc-cp-cp-hc
8 cp-cp-cp-oc
9 hc-cp-cp-oc
10 cp-cp-oc-cp

Improper Type Labels

1 c_0-cp-cp-cp-nb==3
2 cp-c_0-cp-o_1-nb==3
3 cp-cp-cp-hc-nb==3
4 cp-cp-cp-oc-nb==3

Masses

1 12.01115
2 12.01115
3 1.00797
4 15.9994
5 15.9994

Pair Coeffs # lj/class2/coul/long

1 0.12 3.308
2 0.064 4.01
3 0.02 2.3
4 0.267 3.3
5 0.24 3.535

Bond Coeffs # class2

1 1.489 339.357 -655.724 670.236
2 1.216 823.795 -1878.79 2303.53
3 1.417 470.836 -627.618 1327.63
4 1.0982 372.825 -803.453 894.317
5 1.3768 428.88 -738.235 1114.97

Angle Coeffs # class2

1 108.4 43.9594 -8.3924 -9.3379
2 110.588 34.6214 -7.0939 -7.4032
3 119.3 65.1016 -17.9766 0
4 118.9 61.0226 -34.9931 0
5 117.94 35.1558 -12.4682 0
6 123.42 73.6781 -21.6787 0
7 109.5 60 0 0

BondBond Coeffs

1 0 1.489 1.417
2 0 1.489 1.489
3 0 1.489 1.216
4 68.2856 1.417 1.417
5 1.0795 1.417 1.0982
6 48.4754 1.417 1.3768
7 0 1.3768 1.3768

BondAngle Coeffs

1 0 0 1.489 1.417
2 0 0 1.489 1.489
3 0 0 1.489 1.216
4 28.8708 28.8708 1.417 1.417
5 20.0033 24.2183 1.417 1.0982
6 58.479 107.681 1.417 1.3768
7 0 0 1.3768 1.3768

Dihedral Coeffs # class2

1 0 0 2.5 0 0 0
2 0 0 0.9063 0 0 0
3 0 0 4.6282 0 0 0
4 8.3667 0 1.1932 0 0 0
5 0 0 2.167 0 0 0
6 0 0 3.9661 0 0 0
7 0 0 1.8769 0 0 0
8 0 0 4.8498 0 0 0
9 0 0 1.7234 0 0 0
10 0 0 1.8 0 0 0

AngleAngleTorsion Coeffs

1 0 110.588 108.4
2 0 119.3 108.4
3 0 108.4 118.9
4 0 118.9 118.9
5 0 108.4 117.94
6 -4.8141 118.9 117.94
7 0.3598 117.94 117.94
8 -21.0247 118.9 123.42
9 4.2296 117.94 123.42
10 0 123.42 109.5

EndBondTorsion Coeffs

1 0 0 0 0 0 0 1.489 1.417
2 0 0 0 0 0 0 1.216 1.417
3 0 0 0 0 0 0 1.489 1.417
4 -0.1185 6.3204 0 -0.1185 6.3204 0 1.417 1.417
5 0 0 0 0 0 0 1.489 1.0982
6 0 -6.8958 0 0 -0.4669 0 1.417 1.0982
7 0 -0.689 0 0 -0.689 0 1.0982 1.0982
8 0 0.2655 0 0 4.8905 0 1.417 1.3768
9 0 -1.5867 0 0 4.2641 0 1.0982 1.3768
10 0 0 0 0 0 0 1.417 1.3768

MiddleBondTorsion Coeffs

1 0 0 0 1.489
2 0 0 0 1.489
3 0 0 0 1.417
4 27.5989 -2.312 0 1.417
5 0 0 0 1.417
6 0 -1.1521 0 1.417
7 0 4.8228 0 1.417
8 0 4.8255 0 1.417
9 0 5.5432 0 1.417
10 0 0 0 1.3768

BondBond13 Coeffs

1 0 1.489 1.417
2 0 1.216 1.417
3 0 1.489 1.417
4 53 1.417 1.417
5 0 1.489 1.0982
6 -6.2741 1.417 1.0982
7 -1.7077 1.0982 1.0982
8 -2.2436 1.417 1.3768
9 2.0517 1.0982 1.3768
10 0 1.417 1.3768

AngleTorsion Coeffs

1 0 0 0 0 0 0 110.588 108.4
2 0 0 0 0 0 0 119.3 108.4
3 0 0 0 0 0 0 108.4 118.9
4 1.9767 1.0239 0 1.9767 1.0239 0 118.9 118.9
5 0 0 0 0 0 0 108.4 117.94
6 0 2.5014 0 0 2.7147 0 118.9 117.94
7 0 2.4501 0 0 2.4501 0 117.94 117.94
8 0 10.0155 0 0 1.7404 0 118.9 123.42
9 0 1.8729 0 0 2.5706 0 117.94 123.42
10 0 0 0 0 0 0 123.42 109.5

Improper Coeffs # class2

1 10 0
2 38.7949 0
3 4.8912 0
4 13.0421 0

AngleAngle Coeffs

1 0 0 0 108.4 118.9 108.4
2 0 0 0 110.588 119.3 119.3
3 0 0 0 118.9 117.94 117.94
4 0 0 0 118.9 123.42 123.42

Atoms # full

13 1 2 0.0265 -0.5443783416106547 -3.309543935573561 -11.803308692705274 0 0 0
14 1 2 -0.1268 -1.0161483494198769 -1.9935107297813635 -11.746047590903924 0 0 0
15 1 2 -0.1268 -1.0234265645507248 -1.328619252891508 -10.534486664883502 0 0 0
16 1 2 0 -0.5970694498209834 -2.005252571084429 -9.349631986537306 0 0 0
17 1 2 -0.1268 -0.1985882583401768 -3.333761180533891 -9.424234499385122 0 0 0
45 1 3 0.1268 0.5732289736241669 -1.4203500977642105 -13.450359097459492 0 0 0
69 2 5 -0.053 -0.4002513804120411 2.230746625297784 -12.998572146291208 0 0 0
75 2 2 0.0265 -0.320872259665663 2.8915630345426955 -14.221810198030889 0 0 0
120 2 3 0.1268 0.19156751090802526 1.2128833439681062 -10.732008556119656 0 0 0
81 2 2 0.0265 -0.39932666537511174 2.9695960684320193 -11.854337783488337 0 0 0
86 2 2 -0.1268 -0.048690936723662315 2.287132155793522 -10.709454879853567 0 0 0
85 2 2 -0.1268 -0.11062611574764603 2.8576055638414397 -9.49027919241767 0 0 0
279 5 2 0.0265 3.023559771172252 0.0031148567043199904 -9.563433682878088 0 0 0
280 5 2 -0.1268 3.7381513136698965 1.246468069715064 -9.68367499410574 0 0 0
284 5 2 -0.1268 2.3524481255564913 -0.4655513825982238 -10.716419207931771 0 0 0
281 5 2 -0.1268 3.7387362521300282 1.8656734766461014 -10.906280024815072 0 0 1
320 5 3 0.1268 1.9139329438652988 -1.4951635076936092 -10.71160309666771 0 0 0
119 2 3 0.1268 0.012746556177226864 2.229115716361868 -8.608171087422292 0 0 0
283 5 2 -0.1268 2.3840958221998063 0.2449088241362043 -11.883033484566202 0 0 1
282 5 2 0.0265 3.176685514983677 1.374031246131417 -12.0459045941835 0 0 1
319 5 3 0.1268 1.6114006649847132 0.005183350659229369 -12.653409618490546 0 0 1
276 5 5 -0.053 3.401177520990794 2.0518168805050516 -13.2871637933924 0 0 1
273 5 5 -0.053 3.021291905299565 -0.7551080965268411 -8.38783745598355 0 0 0
339 5 3 0.1268 4.211128834586021 -0.45322860933447195 -13.652834805976532 0 0 1
50 1 3 0.1268 -1.4693085844597877 -0.35143675977767463 -10.5424217021104 0 0 0
19 1 1 0.3964 -0.535430189744657 -1.2573509094934643 -8.043450387768399 0 0 0
49 1 3 0.1268 -1.5274775160776974 -1.5313899663139887 -12.5960535436516 0 0 0
318 5 3 0.1268 4.327789102556692 2.763635048382203 -10.944077699438065 0 0 1
317 5 3 0.1268 4.316140519343393 1.8014357850980716 -8.879976134850793 0 0 0
478 8 4 -0.3964 2.5020775139987608 -3.289504771917639 -7.738265070952223 0 1 0
7 1 2 0.0265 -0.48415092919190617 -3.158483888349973 -14.239488000979996 0 0 0
526 8 3 0.1268 3.8099064796718416 -3.367392585917124 -9.995238911880124 0 1 0
51 1 3 0.1268 0.3358543599414894 -3.8992415608051556 -8.626655820754214 0 0 0
314 5 2 0.0265 3.3343808473367877 1.3761785118323413 -14.498981993267346 0 0 1
315 5 2 -0.1268 3.7423666443413914 0.03664105634133996 -14.570696146434363 0 0 1
18 1 2 -0.1268 -0.1132748862306201 -3.9447911174017247 -10.642851740365073 0 0 0
8 1 2 -0.1268 0.1460868188343727 -1.9121643801378512 -14.32909892591522 0 0 0
321 5 3 0.1268 1.9256774216668928 1.7341403514333873 -7.968921715582626 0 0 0
1 1 5 -0.053 -0.5132958554063893 -3.9120395335849465 -13.02856253484082 0 0 0
76 2 2 -0.1268 0.4830021362724435 4.004072388330133 -14.416083360586029 0 0 0
2 1 4 -0.3964 -0.5448254150193956 -0.018577286436231688 -8.0802382040305 0 0 0
593 9 3 0.1268 5.660378419389934 -1.3300346038483353 -12.784752319976093 0 0 0
594 9 3 0.1268 5.545385101743466 -0.14051098710363652 -10.67889215886331 0 0 0
557 9 2 0.0265 6.632037806912075 -3.174218536667598 -12.024588767600914 0 0 0
558 9 2 -0.1268 6.043909833066051 -1.8621829442275084 -11.91744834782625 0 0 0
559 9 2 -0.1268 5.9109593904298645 -1.1998331041726242 -10.694347133096363 0 0 0
560 9 2 0 6.454442859389086 -1.8194023339339216 -9.546300452038132 0 0 0
561 9 2 -0.1268 7.008666241954044 -3.099298945761819 -9.568590214081972 0 0 0
664 10 3 0.1268 7.6917012437973185 1.4689033781769325 -11.504926924521097 0 0 0
663 10 3 0.1268 7.5738465350266235 2.507321416192463 -9.2626779514205 0 0 0
630 10 2 -0.1268 7.298278605029669 2.493922364962498 -11.360295382367239 0 0 0
629 10 2 -0.1268 7.200216359369394 3.1274834223732135 -10.10789015654347 0 0 0
817 13 5 -0.053 10.370027300746154 -0.8729330740334298 -13.596280063295751 0 0 0
829 13 2 0.0265 10.258524463649428 -0.18770709173531053 -12.39590813675616 0 0 0
830 13 2 -0.1268 10.816306088811759 1.0683812037613523 -12.226991724488753 0 0 0
831 13 2 -0.1268 10.81656883825842 1.7088124600156434 -10.965429155379008 0 0 0
832 13 2 0 10.385575698225491 1.043418176730735 -9.824305903460509 0 0 0
833 13 2 -0.1268 9.775054719193983 -0.23474428848361972 -9.968476382737478 0 0 0
834 13 2 -0.1268 9.761151366851804 -0.8536503161637983 -11.253073600182429 0 0 0
868 13 3 0.1268 9.340726679562417 -1.8582214674942685 -11.263975757632206 0 0 0
625 10 2 0.0265 6.8987651829604655 3.2293474653887717 -12.53190100938797 0 0 0
867 13 3 0.1268 9.42775489049668 -0.8525114629636961 -9.152461168802713 0 0 0
818 13 4 -0.3964 10.850754566236786 2.9659606674073755 -8.532977738975976 0 0 0
589 9 3 0.1268 7.668968376270783 -1.2784878182621005 -13.670509700273094 0 0 0
613 10 5 -0.053 6.864139996890195 2.602399042064417 -13.777855855891444 0 0 0
835 13 1 0.3964 10.447811426925453 1.7905943768319332 -8.513415601394943 0 0 0
563 9 1 0.3964 6.471408908306007 -1.0914805080308856 -8.22251963919603 0 0 0
861 13 3 0.1268 9.162726156059001 1.6008351946519017 -14.174235037283625 0 0 0
546 9 4 -0.3964 6.2386284195157184 0.12019624570313248 -8.190316106637882 0 0 0
866 13 3 0.1268 11.279184825318783 2.6686177286664163 -10.847891681573227 0 0 0
1066 16 3 0.1268 11.73366433648135 -3.7385952012745407 -10.898124604142211 0 1 1
865 13 3 0.1268 11.37802887760521 1.5351530536611877 -13.003530865862903 0 0 0
562 9 2 -0.1268 7.183146208746535 -3.7966481381999535 -10.792546469211132 0 0 0
665 10 3 0.1268 5.808822038680514 2.7292795747595138 -8.199858299579672 0 0 0
619 10 2 0.0265 6.776797422888059 3.2588198463283993 -14.968255536316478 0 0 0
595 9 3 0.1268 7.507194849927616 -3.676433176417857 -8.761384414925164 0 0 0
545 9 5 -0.053 6.604695941214869 -3.8367888323352233 -13.24337319403296 0 0 0
551 9 2 0.0265 6.7768679789447415 -3.132437289849052 -14.41732621325444 0 0 0
869 13 3 0.1268 11.102168634808988 -0.6314319937682242 -7.588681118932511 0 0 0
552 9 2 -0.1268 7.256575309475583 -1.8268238372518586 -14.518039087274152 0 0 0
936 14 3 0.1268 9.352667646407907 4.055856761786975 -11.560480961363302 0 0 0
824 13 2 -0.1268 9.732821483865216 1.0875996555702168 -14.96911490849189 0 0 0
823 13 2 0.0265 10.371963334648646 -0.13618112408133243 -14.760239980490487 0 0 0
597 9 3 0.1268 5.7688866770567255 -3.5881050479388144 -7.702706849542647 0 0 0
82 2 2 -0.1268 -0.7460178445147057 4.3920063321116505 -11.74039059798756 0 0 0
84 2 2 0 -0.5425532062941867 4.178531763926403 -9.2674702461129 0 0 0
117 2 3 0.1268 -1.020435563101284 4.964387657663966 -12.588823733794385 0 0 0
388 6 3 0.1268 2.28683353725961 4.645015944398905 -10.792196887875882 0 0 0
382 6 2 0.0265 3.1663014044353694 7.720276754007225 -14.587463845119137 0 0 1
113 2 3 0.1268 1.0847020793305395 4.349198353959389 -13.552264944712679 0 0 0
83 2 2 -0.1268 -0.8120293723155372 4.937789552368827 -10.452378851466596 0 0 0
347 6 2 0.0265 3.5856628503967993 6.079162065465518 -9.814665639095509 0 0 0
352 6 2 -0.1268 2.7217064915982396 5.630140225028736 -10.843305444026075 0 0 0
188 3 3 0.1268 0.3011490299152966 7.075692834731758 -10.814907595128695 0 0 0
348 6 2 -0.1268 4.134499991217468 7.366456464264392 -9.994782267551528 0 0 0
181 3 3 0.1268 0.7867096873478427 10.262500958253346 -13.508162648512165 0 0 0
154 3 2 -0.1268 -0.04355861803892003 8.087940355845257 -10.786005039920802 0 0 0
153 3 2 -0.1268 0.02311076495227704 8.749274635836109 -9.518920845588852 0 0 0
152 3 2 0 -0.4051084545325381 10.094495067145697 -9.434410890456643 0 0 0
151 3 2 -0.1268 -0.8404713495501555 10.76113120891772 -10.606792409203972 0 0 0
150 3 2 -0.1268 -0.9171535570237379 10.076182859212523 -11.80474199227763 0 0 0
149 3 2 0.0265 -0.46188790779232236 8.742906870292416 -11.936646903596772 0 0 0
137 3 5 -0.053 -0.4689908787836268 8.086598765151967 -13.127484393794852 0 0 0
409 7 5 -0.053 3.2741393413696533 11.48738750659013 -13.57118517917873 0 0 0
426 7 2 -0.1268 2.815688535721927 11.375837394429587 -11.258240410029813 0 0 0
460 7 3 0.1268 2.474906731927173 10.3357249163203 -11.379968060195475 0 0 0
349 6 2 -0.1268 3.8731456514068308 8.1320154966178 -11.131172921537312 0 0 1
351 6 2 -0.1268 2.4856239764160133 6.399605645400969 -12.006788409130428 0 0 1
350 6 2 0.0265 3.0705951679844103 7.666995403164766 -12.184715745380966 0 0 1
187 3 3 0.1268 0.24475148485469234 8.167621730929447 -8.644345996347367 0 0 0
387 6 3 0.1268 1.8466014644761923 6.050141106363434 -12.773658280965245 0 0 1
344 6 5 -0.053 2.9801214269719996 8.388459810056064 -13.359867353519675 0 0 1
185 3 3 0.1268 -1.3453841031615537 10.586575962752828 -12.730098577141728 0 0 0
341 6 5 -0.053 3.690084470900354 5.322858056564623 -8.689643399229702 0 0 0
143 3 2 0.0265 -0.46803638772720224 8.724612601221722 -14.340778281037663 0 0 0
386 6 3 0.1268 4.467915911318453 8.998314525897015 -11.214018130777058 0 0 1
459 7 3 0.1268 2.561155566703526 11.259819254225846 -9.19386432564894 0 0 0
118 2 3 0.1268 -1.3189545281309736 5.960106882420098 -10.340890896228084 0 0 0
385 6 3 0.1268 4.89815691184923 7.81046790094898 -9.281726494662466 0 0 0
407 6 3 0.1268 4.032514867307116 5.832895431560933 -13.8642486472845 0 0 1
87 2 1 0.3964 -0.5292941986155517 4.928973320097828 -7.990059410617566 0 0 0
70 2 4 -0.3964 -0.6311095116410601 6.139599534761157 -7.934257281032241 0 0 0
425 7 2 -0.1268 2.9421922002333867 11.907605180173627 -9.907944346177764 0 0 0
383 6 2 -0.1268 3.8085578292329947 6.497076606433911 -14.714214742569826 0 0 1
389 6 3 0.1268 2.519510228192046 7.849223645526292 -8.076688287339156 0 0 0
155 3 1 0.3964 -0.3416809204575131 10.849408363289314 -8.120423977011109 0 0 0
144 3 2 -0.1268 0.16777124811632493 9.987988493616378 -14.44727577217375 0 0 0
186 3 3 0.1268 -1.2143667722926363 11.87336917704785 -10.55525072060055 0 0 0
421 7 2 0.0265 3.254324028431456 12.185325899550474 -12.333205256864545 0 0 0
415 7 2 0.0265 3.050745465345292 12.15727737739429 -14.771983717424385 0 0 0
138 3 4 -0.3964 -0.22628881834754688 12.085116381730003 -8.136840852606145 0 0 0
461 7 3 0.1268 4.042955398108803 11.428339482157135 -7.684797449601518 0 0 0
628 10 2 0 6.849516594153819 4.474673065595539 -10.030264577128177 0 0 0
626 10 2 -0.1268 6.504708978962816 4.562025781534091 -12.426273365461531 0 0 0
657 10 3 0.1268 7.654816446239035 5.110039174061093 -14.291209893249434 0 0 0
661 10 3 0.1268 6.140521502566006 5.155190098694014 -13.261062265747217 0 0 0
729 11 3 0.1268 5.918977189383993 11.130296675644004 -12.458892522839465 0 0 0
627 10 2 -0.1268 6.47394580024798 5.175539292069736 -11.19338452315793 0 0 0
662 10 3 0.1268 6.328296237321112 6.2752233381281695 -11.213855483890388 0 0 0
885 14 5 -0.053 10.33039368302401 4.9483733846952 -13.688999253603114 0 0 0
897 14 2 0.0265 10.326645792354636 5.650217919371359 -12.50124456080619 0 0 0
901 14 2 -0.1268 9.941079384050598 5.613617057302081 -10.10873551848876 0 0 0
902 14 2 -0.1268 9.83492531213734 5.030415185966076 -11.355006709760636 0 0 0
732 11 3 0.1268 8.147069284554155 7.858858453938881 -10.681758688172074 0 0 0
898 14 2 -0.1268 11.054242393173014 6.819112714852119 -12.361395179785967 0 0 0
899 14 2 -0.1268 11.119024366138948 7.452962714788699 -11.133283508742087 0 0 0
900 14 2 0 10.610369687579741 6.8591915434384525 -9.986440277843503 0 0 0
698 11 2 -0.1268 7.646315756635611 8.834188371312171 -10.653572770597034 0 0 0
697 11 2 -0.1268 7.292592795992386 9.295824913610874 -9.415423071268734 0 0 0
696 11 2 0 6.658513551360244 10.496151055335872 -9.232065765939485 0 0 0
694 11 2 -0.1268 6.373741243391457 10.587950792635931 -11.673436295305642 0 0 0
693 11 2 0.0265 7.165096513645583 9.428682333180717 -11.810355210443369 0 0 0
681 11 5 -0.053 7.355521352493216 8.757385742070491 -13.001555103343904 0 0 0
1000 15 3 0.1268 9.491339654806938 10.885475138669925 -10.432670941199493 0 0 0
695 11 2 -0.1268 6.157894050205163 11.12673530301749 -10.411282358660433 0 0 0
725 11 3 0.1268 8.340294794529012 11.147561656445387 -13.66570768207405 0 0 0
935 14 3 0.1268 9.669962408545 5.086323844544992 -9.197706771499789 0 0 0
731 11 3 0.1268 7.761793359089193 8.683041996071859 -8.577006756103003 0 0 0
929 14 3 0.1268 9.374393664237582 7.514599827839156 -14.255434120120741 0 0 0
631 10 1 0.3964 6.82951777962638 5.203198357986087 -8.711540591255332 0 0 0
614 10 4 -0.3964 6.920656199474216 6.438545305461901 -8.700000910645743 0 0 0
903 14 1 0.3964 10.623749139086256 7.666672521789559 -8.756875884445552 0 0 0
886 14 4 -0.3964 10.839435960071269 8.87085548975518 -8.694520531475302 0 0 0
699 11 1 0.3964 6.609862795754186 11.15539665433415 -7.883071858546944 0 0 0
934 14 3 0.1268 11.680794661225036 8.468295413851656 -11.08665695753534 0 0 0
933 14 3 0.1268 11.55821641499008 7.299395951396958 -13.238691154073434 0 0 0
1019 15 3 0.1268 11.489465580534356 11.822922374750396 -13.426948718349053 0 0 1
964 15 2 -0.1268 9.914953774019448 11.861489465400675 -10.43402099975009 0 0 0
687 11 2 0.0265 7.1570746818097355 9.4066916178937 -14.213164469904914 0 0 0
999 15 3 0.1268 9.358964507469318 12.039543170990417 -12.564523166379736 0 0 1
891 14 2 0.0265 10.340251630748304 5.592860609352664 -14.910779536429802 0 0 0
937 14 3 0.1268 11.379731962604556 5.113660702575231 -7.851552304954273 0 0 0
953 15 5 -0.053 10.325309238520736 11.718857821991381 -8.17973874893227 0 0 0
730 11 3 0.1268 5.637291863221201 12.080982871246878 -10.360039558235568 0 0 0
688 11 2 -0.1268 7.7028790221658685 10.66056081615295 -14.430569583084862 0 0 0
728 11 3 0.1268 6.278291626247958 7.701523212988365 -14.943975791697572 0 0 0
254 4 3 0.1268 -1.1784349250063901 18.319646195998953 -10.400356497723957 0 0 0
52 1 3 0.1268 0.5957048440471557 19.77804709789587 -10.668185125741807 0 -1 0
253 4 3 0.1268 -1.0015859052411686 17.240205430059046 -12.638178151941846 0 0 0
483 8 2 0.0265 3.2540129662700243 18.392999575078825 -14.143309523959394 0 0 0
491 8 2 -0.1268 3.579665516748573 20.148009065688164 -10.173828019679071 0 0 0
525 8 3 0.1268 4.048263144009436 20.284106275162706 -12.246818354659979 0 0 0
521 8 3 0.1268 2.220046474622877 20.129650137732828 -13.32695696750088 0 0 0
256 4 3 0.1268 0.4949516933545248 13.676274501522254 -10.699072342329016 0 0 0
205 4 5 -0.053 -0.38264958930557946 14.700984970828507 -13.048712792605855 0 0 0
217 4 2 0.0265 -0.4073108170488964 15.341671806895622 -11.82238371095151 0 0 0
219 4 2 -0.1268 -0.7297641550617964 17.31886656246798 -10.428039348017618 0 0 0
220 4 2 0 -0.43211524419742076 16.61289706536192 -9.236027841228918 0 0 0
221 4 2 -0.1268 -0.04349300087226249 15.271026132050398 -9.353255112835726 0 0 0
222 4 2 -0.1268 -0.010717212913772034 14.665752633336648 -10.647058278813311 0 0 0
528 8 3 0.1268 2.795083983115786 16.39421990735441 -10.765564739294643 0 0 0
422 7 2 -0.1268 3.685141537303262 13.513662331229163 -12.156345865216371 0 0 0
423 7 2 -0.1268 3.673188322062484 14.106530021823762 -10.852386806373502 0 0 0
424 7 2 0 3.3089595901127034 13.28571645857182 -9.782898675103214 0 0 0
453 7 3 0.1268 1.8727865920580857 13.798665471602522 -13.98862057335999 0 0 0
457 7 3 0.1268 3.9976523636764956 14.062996352707053 -13.055085778924001 0 0 0
489 8 2 0.0265 3.3660741766825044 18.293766882519982 -11.726561436086177 0 0 0
490 8 2 -0.1268 3.635709849112904 19.641620514389146 -11.465637950499282 0 0 0
492 8 2 0 3.1169777841643844 19.41906526331372 -9.117868261164869 0 0 0
493 8 2 -0.1268 2.9161378333639334 18.006077444297915 -9.35332090841952 0 0 0
494 8 2 -0.1268 3.0392720635851305 17.45217901387102 -10.618375443271445 0 0 0
218 4 2 -0.1268 -0.8139898824708434 16.672396193799234 -11.678794282897309 0 0 0
477 8 5 -0.053 3.4620491416217805 17.674260745555443 -12.955165006095209 0 0 0
255 4 3 0.1268 0.414247122508959 14.69366726083084 -8.562789716996294 0 0 0
527 8 3 0.1268 2.68348696628842 17.323847165798746 -8.512507982356599 0 0 0
249 4 3 0.1268 0.7830308931721053 16.946487970286316 -13.590388543075385 0 0 0
458 7 3 0.1268 3.8946368704289096 15.132882700837033 -10.706074208465076 0 0 0
410 7 4 -0.3964 3.607332756382939 15.228943163232074 -8.425740788504783 0 0 0
223 4 1 0.3964 -0.6326915482307485 17.352859719978106 -7.838840912679459 0 0 0
206 4 4 -0.3964 -0.8092985649722868 18.617483269668575 -7.895792467013989 0 0 0
495 8 1 0.3964 2.834513869612686 20.13205720890266 -7.757662563341311 0 0 0
484 8 2 -0.1268 2.6471359380486357 19.643471748322256 -14.283033431060282 0 0 0
211 4 2 0.0265 -0.39615660475996606 15.388222388823415 -14.285531583149284 0 0 0
212 4 2 -0.1268 0.20931291536805974 16.65246571336266 -14.48072443529901 0 0 0
416 7 2 -0.1268 2.3869671027834007 13.38277082668537 -14.859980469659398 0 0 0
427 7 1 0.3964 3.355284756132712 14.029906570654731 -8.490426298927868 0 0 0
682 11 4 -0.3964 6.564905315011105 12.383249427354588 -7.8593157421201285 0 0 0
995 15 2 -0.1268 10.987792007153937 12.355352158759029 -14.29607151879893 0 0 1
963 15 2 -0.1268 9.942278548083838 12.491722514467078 -11.691730955812787 0 0 1
959 15 2 0.0265 10.419653601844919 12.43412186171885 -9.31408570678394 0 0 0
1024 16 5 -0.053 10.278446860756889 20.215788480965873 -12.894281064999673 0 0 1
1029 16 2 -0.1268 11.17460338857311 19.9201193724945 -10.693267782836692 0 0 1
1063 16 2 -0.1268 10.937610529943935 18.39536007375071 -14.348021956444203 0 0 1
798 12 3 0.1268 5.971163819223314 18.460421306973284 -10.298175878087303 0 0 0
998 15 3 0.1268 11.869998019134133 15.088788380696538 -10.871656148336232 0 0 1
596 9 3 0.1268 7.685715903465022 19.84672962029486 -10.931662656742963 0 -1 0
797 12 3 0.1268 6.376660821574973 17.417375937987178 -12.62775504401398 0 0 0
1030 16 2 0.0265 10.38409864365098 19.43427494617382 -11.753700401254036 0 0 1
749 12 5 -0.053 6.9143205528235026 14.923244962648916 -12.993064979622412 0 0 0
1067 16 3 0.1268 8.976312727196444 17.783419096009894 -12.335260632645092 0 0 1
1031 16 2 -0.1268 9.617107808960869 18.26586691119076 -11.568531696418493 0 0 1
961 15 2 -0.1268 11.215776034672627 14.225078876224096 -10.750335355829472 0 0 1
800 12 3 0.1268 7.414017034233504 13.716020100737918 -10.763907411342473 0 0 0
799 12 3 0.1268 7.169066393890155 14.665440319266171 -8.535404471772361 0 0 0
761 12 2 0.0265 6.852332796913618 15.513737352193 -11.771520660610392 0 0 0
762 12 2 -0.1268 6.524279074451268 16.863494109068576 -11.660989031922966 0 0 0
763 12 2 -0.1268 6.409262426922991 17.47532853647979 -10.419747204222675 0 0 0
764 12 2 0 6.607509786387803 16.70334542281454 -9.28560109431368 0 0 0
765 12 2 -0.1268 6.939621564539241 15.326022807682865 -9.395289620717818 0 0 0
766 12 2 -0.1268 7.0113328794605785 14.747085385414739 -10.634046735266562 0 0 0
1068 16 3 0.1268 9.279475896438122 16.545016122466407 -10.312571814400563 0 0 0
960 15 2 -0.1268 11.215137171918926 13.600604034620225 -9.474859660874525 0 0 0
1021 16 5 -0.053 10.41050060713522 17.325653214014793 -8.11982321678169 0 0 0
1027 16 2 0.0265 10.47506715413522 18.058787424868786 -9.303291140823626 0 0 0
1028 16 2 -0.1268 11.251241813080691 19.226425995011407 -9.491935911933549 0 0 0
1032 16 2 -0.1268 9.745430650729064 17.530036893501364 -10.383136322383201 0 0 0
962 15 2 0.0265 10.576888277708662 13.701851152291084 -11.85963029160871 0 0 1
793 12 3 0.1268 8.246629289634745 17.059712071047752 -13.787190165242652 0 0 0
956 15 5 -0.053 10.668647384065489 14.474300786273243 -13.026643393010216 0 0 1
755 12 2 0.0265 6.882888762158197 15.49078748565286 -14.229898640070529 0 0 0
997 15 3 0.1268 11.74910951083802 14.097524834836335 -8.652362906946397 0 0 0
756 12 2 -0.1268 7.546583503751359 16.724416204327845 -14.554961539617999 0 0 0
767 12 1 0.3964 6.4822628858206635 17.444155740712493 -7.944891547707179 0 0 0
994 15 2 0.0265 10.536897621359985 13.713769229081922 -14.185003025468836 0 0 1
1062 16 2 0.0265 10.389828172114596 19.64570929793871 -14.122071987398881 0 0 1
1001 15 3 0.1268 9.834623481902927 14.249943635056141 -7.587163542332791 0 0 0
1087 16 3 0.1268 11.381007063741077 17.829406452266763 -13.556364327316519 0 0 1
1065 16 3 0.1268 11.96031838181852 19.55944685386289 -8.732235515767702 0 0 0
1069 16 3 0.1268 9.324812273520472 19.71702461723452 -7.64446287475665 0 0 0
750 12 4 -0.3964 6.26348160550417 18.679377041301294 -8.013840779271144 0 0 0
58 1 3 0.1268 -1.970709730049035 -0.13362844125642415 -0.3767030481193281 0 0 0
121 2 3 0.1268 -1.5355034520795554 2.4572676999685443 -7.097160530195221 0 0 0
294 5 2 -0.1268 2.9429432113754954 -0.8009378324571332 -0.8427578047358253 0 0 0
57 1 3 0.1268 -1.8796891523662378 -1.210541648474095 -2.5601255642318588 0 0 0
285 5 2 0.0265 3.052852403191622 0.00013808596111886118 -7.228737279134851 0 0 0
297 5 2 -0.1268 3.7569929913919093 1.7925702512929265 -0.9073119557532952 0 0 0
286 5 2 -0.1268 2.5080226855536303 1.2691657658405253 -7.106100583252861 0 0 0
20 1 2 0 -0.42209406808914807 -1.9507901089398545 -6.761228737842176 0 0 0
287 5 2 -0.1268 2.589251424445849 2.0100342176980472 -5.921652371057144 0 0 0
290 5 2 -0.1268 3.625655774294075 -0.528268975551069 -6.02805734015481 0 0 0
322 5 3 0.1268 2.0866208708281215 2.9790629384449687 -5.818330735600259 0 0 0
288 5 2 0 3.1312629874797206 1.4149496539138653 -4.763113538402536 0 0 0
289 5 2 -0.1268 3.625073456267285 0.11743775096554465 -4.801861476665012 0 0 0
323 5 3 0.1268 3.9751443234173385 -0.49408216166940466 -3.9475733298482876 0 0 0
94 2 2 0.0265 -0.19013613475715996 3.2113473396297367 -1.6197104521915566 0 0 0
91 2 2 0.0265 -0.21485685536445986 3.1058981098528298 -4.086536545466181 0 0 0
90 2 2 -0.1268 -0.8267997697241598 2.445535421940413 -5.146908453406947 0 0 0
89 2 2 -0.1268 -0.9899656684295424 3.0586071906827046 -6.3909002982412435 0 0 0
71 2 5 -0.053 0.00025715972165363254 2.518201146988993 -2.854633818409484 0 0 0
56 1 3 0.1268 0.23916748107012387 -0.18263780463410884 -5.865382268210965 0 0 0
55 1 3 0.1268 0.38705731018336476 -1.1563037371555134 -3.4604071133637593 0 0 0
27 1 2 -0.1268 -1.2580085293996164 -1.6362943354848767 -1.7570701220407514 0 0 0
26 1 2 0.0265 -0.6263302670052007 -2.88079554149114 -1.8135881429228267 0 0 0
25 1 2 -0.1268 -0.005523576859154833 -1.1729360081042048 -5.6711404773137986 0 0 0
24 1 2 -0.1268 0.029032056348029744 -1.6654721185594799 -4.334777327751693 0 0 0
23 1 2 0.0265 -0.33665538269318174 -3.0268635693319146 -4.195494844349826 0 0 0
21 1 2 -0.1268 -0.7260695713233509 -3.3069591133541185 -6.560437266526588 0 0 0
291 5 1 0.3964 3.0931190134621023 2.0908432733606066 -3.3815949696447483 0 0 0
292 5 2 0 3.2246107958956687 1.3007304814945986 -2.081385949089441 0 0 0
293 5 2 -0.1268 2.8308975924424056 -0.04630194522388997 -2.0047044778099607 0 0 0
325 5 3 0.1268 2.5514006354594096 -0.43468790755657816 -2.9888311193763872 0 0 0
274 5 4 -0.3964 2.9656601780910776 3.2960835167988636 -3.296784380069351 0 0 0
122 2 3 0.1268 -1.2082774236443865 1.4311340477813568 -4.931812428215103 0 0 0
324 5 3 0.1268 4.122379973115961 -1.5071425342099016 -6.150378467698063 0 0 0
99 2 2 -0.1268 0.2716222454552706 2.587662639047376 -0.46343117673915657 0 0 0
128 2 3 0.1268 0.8454612215632116 1.6634972498470004 -0.5838795511888417 0 0 0
328 5 3 0.1268 4.206794155492235 2.8101419540749326 -0.856325345614227 0 0 0
532 8 3 0.1268 2.0121336777251173 -3.464030928753041 -5.382366418819098 0 1 0
31 1 2 -0.1268 0.00022130714489199121 -3.4184543211069633 -0.6937654211866775 0 0 0
28 1 2 -0.1268 -1.3775509541667879 -1.061890113246891 -0.4887067025321521 0 0 0
3 1 5 -0.053 -0.5015304731888368 -3.6157394593642587 -2.9879995356142537 0 0 0
22 1 2 -0.1268 -0.6322117325216576 -3.8362877017589185 -5.294891750783723 0 0 0
53 1 3 0.1268 -0.956620648958256 -4.008062539153995 -7.378254745871092 0 0 0
326 5 3 0.1268 2.3951724180187455 -1.8014462824164812 -0.9331857359696762 0 0 0
602 9 3 0.1268 5.351901237108027 -0.7120208868418647 -0.44061473561285425 0 0 0
564 9 2 0 6.691109003696667 -1.8744441176649986 -6.901063783582785 0 0 0
836 13 2 0 10.136279131860633 1.1782208390058315 -7.148758675444595 0 0 0
837 13 2 -0.1268 10.484603705801822 -0.1283945530281967 -6.833272418882004 0 0 0
565 9 2 -0.1268 6.2891482127744265 -3.232669510178246 -6.81474164573517 0 0 0
633 10 2 -0.1268 6.317695975555802 3.1638165451604303 -7.326434079364958 0 0 0
873 13 3 0.1268 9.154454328328816 -1.4292588743169667 -1.0757874257962339 0 0 0
870 13 3 0.1268 11.05910018187664 -1.4830160209028107 -5.218642064296574 0 0 0
601 9 3 0.1268 5.359287134080586 -1.8017403087854746 -2.633725220674034 0 0 0
672 10 3 0.1268 7.190207626228142 1.2090655589221067 -1.4674347375605983 0 0 0
843 13 2 -0.1268 9.353640638851665 -0.3863323409574764 -1.0070294674441396 0 0 0
666 10 3 0.1268 5.957770992736728 1.399202851083298 -6.032791978533211 0 0 0
634 10 2 -0.1268 6.411388008678459 2.43732225828285 -6.157465744483439 0 0 0
569 9 2 -0.1268 7.048670878003991 -1.1686348008434395 -5.733241965034898 0 0 0
600 9 3 0.1268 7.2895876331841905 -0.1049671113786772 -5.763140195071253 0 0 0
847 13 2 -0.1268 10.359869986665766 1.5059902421284415 -2.0530748216191164 0 0 0
871 13 3 0.1268 9.019776087422114 2.16044724520823 -4.02438755364393 0 0 0
638 10 2 0.0265 6.645877818239029 3.036935954176264 -2.5083994962158656 0 0 0
635 10 2 0.0265 6.742583771066551 3.106923310194402 -4.993036689686532 0 0 0
615 10 5 -0.053 6.573132481392937 2.4151704742710027 -3.802287621994102 0 0 0
599 9 3 0.1268 7.406825166783127 -1.4230501756581875 -3.5693535134489434 0 0 0
571 9 2 -0.1268 6.0285015375274575 -2.225278377670012 -1.8153500121614368 0 0 0
570 9 2 0.0265 6.777549561797759 -3.390382394086507 -2.027119386831135 0 0 0
568 9 2 -0.1268 7.152981832182492 -1.8980286404935884 -4.551298726025967 0 0 0
567 9 2 0.0265 6.926530973976666 -3.267814161309783 -4.446920970637866 0 0 0
819 13 5 -0.053 9.866963332262563 -0.47608856994676074 -3.284808902322327 0 0 0
838 13 2 -0.1268 10.546972205908107 -0.5273506969410859 -5.497145734054499 0 0 0
839 13 2 0.0265 9.922145672250748 0.19868178418129112 -4.4731290967108475 0 0 0
840 13 2 -0.1268 9.481367310070194 1.509932783379794 -4.806333605120347 0 0 0
841 13 2 -0.1268 9.615202172222377 1.9760158126775158 -6.086158358952488 0 0 0
842 13 2 0.0265 9.853257586409645 0.23514246813988837 -2.1631046800723794 0 0 0
1022 16 4 -0.3964 10.148092484523504 -3.3142696676439796 -3.137365500796083 0 1 0