LAMMPS data file via write_data, version 29 Aug 2024, timestep = 1000000, units = real

2176 atoms
5 atom types
2368 bonds
5 bond types
3776 angles
7 angle types
5632 dihedrals
10 dihedral types
1216 impropers
4 improper types

-2.1795838361896838 26.577763836182108 xlo xhi
-4.0673111286829435 20.5673111286796 ylo yhi
-15.024275158691646 15.024275158691646 zlo zhi

Atom Type Labels

1 c_0
2 cp
3 hc
4 o_1
5 oc

Bond Type Labels

1 c_0-cp
2 c_0-o_1
3 cp-cp
4 cp-hc
5 cp-oc

Angle Type Labels

1 c_0-cp-cp
2 cp-c_0-cp
3 cp-c_0-o_1
4 cp-cp-cp
5 cp-cp-hc
6 cp-cp-oc
7 cp-oc-cp

Dihedral Type Labels

1 cp-c_0-cp-cp
2 o_1-c_0-cp-cp
3 c_0-cp-cp-cp
4 cp-cp-cp-cp
5 c_0-cp-cp-hc
6 cp-cp-cp-hc
7 hc-cp-cp-hc
8 cp-cp-cp-oc
9 hc-cp-cp-oc
10 cp-cp-oc-cp

Improper Type Labels

1 c_0-cp-cp-cp-nb==3
2 cp-c_0-cp-o_1-nb==3
3 cp-cp-cp-hc-nb==3
4 cp-cp-cp-oc-nb==3

Masses

1 12.01115
2 12.01115
3 1.00797
4 15.9994
5 15.9994

Pair Coeffs # lj/class2/coul/long

1 0.12 3.308
2 0.064 4.01
3 0.02 2.3
4 0.267 3.3
5 0.24 3.535

Bond Coeffs # morse

1 82.6961 2.1 1.489
2 190.966 2.2 1.216
3 150 1.9 1.417
4 98.2315 2.1 1.0982
5 85.5641 2.3 1.3768

Angle Coeffs # class2xe

1 108.4 43.9594 -8.3924 -9.3379
2 110.588 34.6214 -7.0939 -7.4032
3 119.3 65.1016 -17.9766 0
4 118.9 61.0226 -34.9931 0
5 117.94 35.1558 -12.4682 0
6 123.42 73.6781 -21.6787 0
7 109.5 60 0 0

BondBond Coeffs

1 116.348 0 1.489 1.417
2 82.6961 0 1.489 1.489
3 136.831 0 1.489 1.216
4 150 0.477094 1.417 1.417
5 124.116 0.0659451 1.417 1.0982
6 117.782 0.453635 1.417 1.3768
7 85.5641 0 1.3768 1.3768

BondAngle Coeffs

1 82.6961 150 0 0 1.489 1.417
2 82.6961 82.6961 0 0 1.489 1.489
3 82.6961 190.966 0 0 1.489 1.216
4 150 150 0.310219 0.310219 1.417 1.417
5 150 98.2315 0.25822 0.3511 1.417 1.0982
6 150 85.5641 0.441509 0.793248 1.417 1.3768
7 85.5641 85.5641 0 0 1.3768 1.3768

Dihedral Coeffs # class2xe

1 0 0 2.5 0 0 0
2 0 0 0.9063 0 0 0
3 0 0 4.6282 0 0 0
4 8.3667 0 1.1932 0 0 0
5 0 0 2.167 0 0 0
6 0 0 3.9661 0 0 0
7 0 0 1.8769 0 0 0
8 0 0 4.8498 0 0 0
9 0 0 1.7234 0 0 0
10 0 0 1.8 0 0 0

AngleAngleTorsion Coeffs

1 0 110.588 108.4
2 0 119.3 108.4
3 0 108.4 118.9
4 0 118.9 118.9
5 0 108.4 117.94
6 -4.8141 118.9 117.94
7 0.3598 117.94 117.94
8 -21.0247 118.9 123.42
9 4.2296 117.94 123.42
10 0 123.42 109.5

EndBondTorsion Coeffs

1 2.1 1.9 0 0 0 0 0 0 1.489 1.417
2 2.2 1.9 0 0 0 0 0 0 1.216 1.417
3 2.1 1.9 0 0 0 0 0 0 1.489 1.417
4 1.9 1.9 -0.1185 6.3204 0 -0.1185 6.3204 0 1.417 1.417
5 2.1 2.1 0 0 0 0 0 0 1.489 1.0982
6 1.9 2.1 0 -6.8958 0 0 -0.4669 0 1.417 1.0982
7 2.1 2.1 0 -0.689 0 0 -0.689 0 1.0982 1.0982
8 1.9 2.3 0 0.2655 0 0 4.8905 0 1.417 1.3768
9 2.1 2.3 0 -1.5867 0 0 4.2641 0 1.0982 1.3768
10 1.9 2.3 0 0 0 0 0 0 1.417 1.3768

MiddleBondTorsion Coeffs

1 2.1 0 0 0 1.489
2 2.1 0 0 0 1.489
3 1.9 0 0 0 1.417
4 1.9 27.5989 -2.312 0 1.417
5 1.9 0 0 0 1.417
6 1.9 0 -1.1521 0 1.417
7 1.9 0 4.8228 0 1.417
8 1.9 0 4.8255 0 1.417
9 1.9 0 5.5432 0 1.417
10 2.3 0 0 0 1.3768

BondBond13 Coeffs

1 116.348 0 1.489 1.417
2 170.483 0 1.216 1.417
3 116.348 0 1.489 1.417
4 150 0.420317 1.417 1.417
5 90.4638 0 1.489 1.0982
6 124.116 0.158982 1.417 1.0982
7 98.2315 0.0932321 1.0982 1.0982
8 117.782 0.0975929 1.417 1.3768
9 91.8978 0.105655 1.0982 1.3768
10 117.782 0 1.417 1.3768

AngleTorsion Coeffs

1 0 0 0 0 0 0 110.588 108.4
2 0 0 0 0 0 0 119.3 108.4
3 0 0 0 0 0 0 108.4 118.9
4 1.9767 1.0239 0 1.9767 1.0239 0 118.9 118.9
5 0 0 0 0 0 0 108.4 117.94
6 0 2.5014 0 0 2.7147 0 118.9 117.94
7 0 2.4501 0 0 2.4501 0 117.94 117.94
8 0 10.0155 0 0 1.7404 0 118.9 123.42
9 0 1.8729 0 0 2.5706 0 117.94 123.42
10 0 0 0 0 0 0 123.42 109.5

Improper Coeffs # class2

1 10 0
2 38.7949 0
3 4.8912 0
4 13.0421 0

AngleAngle Coeffs

1 0 0 0 108.4 118.9 108.4
2 0 0 0 110.588 119.3 119.3
3 0 0 0 118.9 117.94 117.94
4 0 0 0 118.9 123.42 123.42

Atoms # full

13 1 2 0.0265 -0.18263841463078023 -2.794673608944009 -12.05956545317131 0 0 0
14 1 2 -0.1268 -0.83607030548066 -1.4770946805222058 -12.005834011874716 0 0 0
15 1 2 -0.1268 -0.8424335710939923 -0.7818451186385813 -10.785034166536683 0 0 0
16 1 2 0 -0.42115478553569474 -1.340790901452293 -9.571413305666828 0 0 0
17 1 2 -0.1268 0.19724799050715847 -2.5991488450037497 -9.675111224399132 0 0 0
45 1 3 0.1268 0.4945920891687243 -1.2555815826859078 -13.861018042662712 0 0 0
69 2 5 -0.053 -0.21791414169650958 2.3327858041193075 -12.578270231172993 0 0 0
120 2 3 0.1268 0.4319651616049378 1.5906531228297958 -10.031944409618625 0 0 0
81 2 2 0.0265 -0.3161130639238168 3.179094648499027 -11.450205450102315 0 0 0
86 2 2 -0.1268 -0.012407583168892788 2.586529090280685 -10.239792043313024 0 0 0
85 2 2 -0.1268 -0.1099190270932997 3.3123018686524963 -9.092600808377 0 0 0
279 5 2 0.0265 3.1455117366103797 0.044827284314552074 -9.521046786499134 0 0 0
280 5 2 -0.1268 3.711086941529903 1.3211878209277392 -9.532157473736069 0 0 0
284 5 2 -0.1268 2.7987270616882 -0.5123924850702761 -10.735001596926303 0 0 0
281 5 2 -0.1268 3.85569400563803 1.9763543789675975 -10.767734918135242 0 0 1
320 5 3 0.1268 2.280093819405417 -1.5175577957268414 -10.672649883934639 0 0 0
119 2 3 0.1268 0.20371356303387067 2.6940913450584514 -8.222476421007983 0 0 0
283 5 2 -0.1268 2.925338549749261 0.0895766890286005 -11.96470319717984 0 0 1
282 5 2 0.0265 3.5352757488249216 1.424946032212759 -11.99919333532526 0 0 1
319 5 3 0.1268 2.689600077985136 -0.3768003830433386 -12.91854886161185 0 0 1
276 5 5 -0.053 3.667478874750284 2.1390450221989115 -13.214742252930154 0 0 1
273 5 5 -0.053 3.0436344723252775 -0.6654408963133744 -8.34050401979094 0 0 0
50 1 3 0.1268 -1.3549050876035376 0.15657028962270392 -10.903388923134402 0 0 0
49 1 3 0.1268 -1.140568422756309 -0.9721670920855909 -12.947872516411543 0 0 0
339 5 3 0.1268 4.572700958335442 -0.39317703321275843 -13.797506596172655 0 0 1
318 5 3 0.1268 4.37515751968468 2.9685147863453887 -10.826034350004369 0 0 1
75 2 2 0.0265 -0.18995668138496558 2.9376046007392773 -13.877025468260326 0 0 0
526 8 3 0.1268 4.284925311899186 -3.5297901555924307 -10.51070695012686 0 1 0
478 8 4 -0.3964 3.725478322980477 -3.247301876220277 -8.26768557138088 0 1 0
19 1 1 0.3964 -0.631352483762609 -0.6790939816350967 -8.248881175956743 0 0 0
2 1 4 -0.3964 -1.098041735409355 0.4368813071353168 -8.261776678498558 0 0 0
7 1 2 0.0265 -0.3711574096276016 -3.1191730752510662 -14.441853473055435 0 0 0
317 5 3 0.1268 4.086611788064146 1.7739030496696877 -8.604320836762383 0 0 0
314 5 2 0.0265 3.5969156951372128 1.4883744793209788 -14.403245833810633 0 0 1
8 1 2 -0.1268 0.12136738078016762 -1.8396447536980056 -14.69337433799035 0 0 0
1 1 5 -0.053 -0.31342166492837187 -3.6023550265245805 -13.12671991848649 0 0 0
315 5 2 -0.1268 4.055566633368184 0.16520747039620165 -14.592924222897203 0 0 1
51 1 3 0.1268 0.6219304324179507 -3.1069838803345053 -8.819231537149392 0 0 0
18 1 2 -0.1268 0.2508205749048824 -3.3228044877743352 -10.838732313988563 0 0 0
76 2 2 -0.1268 0.5429866539750878 4.10283948869659 -14.151701035004564 0 0 0
321 5 3 0.1268 1.9678641416037674 1.8276704867464666 -7.819718781007005 0 0 0
53 1 3 0.1268 -1.1079577671442389 -3.2667074915334053 -7.6649934355841856 0 0 0
80 2 2 -0.1268 -0.7752415688729843 2.2592465830211292 -14.946862951579103 0 0 0
116 2 3 0.1268 -1.4123731316085761 1.3841467887366337 -14.641923104008772 0 0 0
593 9 3 0.1268 6.206967640687017 -1.151247731146333 -12.772185755293787 0 0 0
594 9 3 0.1268 6.401158810021888 -0.1362363660626591 -10.722423682214783 0 0 0
557 9 2 0.0265 6.843762457245953 -3.1961808949104484 -12.132657379723435 0 0 0
558 9 2 -0.1268 6.579168161408578 -1.8361544075540515 -12.01549146042233 0 0 0
559 9 2 -0.1268 6.688464277173075 -1.1872492121143168 -10.812117470258457 0 0 0
560 9 2 0 7.040713666872739 -1.8925386463581941 -9.611646139991386 0 0 0
561 9 2 -0.1268 7.295595026068831 -3.2625756876963594 -9.744989969613705 0 0 0
664 10 3 0.1268 7.7775866412736665 1.4851350080036303 -11.202038975769394 0 0 0
663 10 3 0.1268 7.881368776862953 2.5615661657662194 -9.117020961763185 0 0 0
630 10 2 -0.1268 7.46640734458186 2.594876132798288 -11.151051198320639 0 0 0
629 10 2 -0.1268 7.429027336550149 3.1495252555729927 -9.885625244676943 0 0 0
817 13 5 -0.053 10.630723287194748 -0.8163446094918752 -13.524000576418437 0 0 0
829 13 2 0.0265 10.734769559281201 -0.1353053973272691 -12.318283898830192 0 0 0
830 13 2 -0.1268 11.384569101673073 1.0595383425760767 -12.151218219867234 0 0 0
831 13 2 -0.1268 11.311681914623945 1.7654528314187292 -10.911189790556975 0 0 0
832 13 2 0 10.770206239709605 1.2042160438371603 -9.685686551491957 0 0 0
833 13 2 -0.1268 10.302571346528923 -0.1255574370728496 -9.896128669890846 0 0 0
834 13 2 -0.1268 10.274311015905539 -0.7181422724445827 -11.163789039560337 0 0 0
868 13 3 0.1268 9.929863826072516 -1.7516894572340633 -11.297893014371644 0 0 0
625 10 2 0.0265 7.006778774256201 3.3061729185966087 -12.22444897526617 0 0 0
867 13 3 0.1268 9.645934801946177 -0.6732075387607268 -9.164868702186952 0 0 0
589 9 3 0.1268 8.406341399274833 -1.6855421596087612 -14.02261827061277 0 0 0
613 10 5 -0.053 7.1568559518693124 2.795723355572205 -13.44549664186216 0 0 0
861 13 3 0.1268 9.245397189345395 1.465771174829806 -13.83294723660029 0 0 0
546 9 4 -0.3964 7.057013503643153 0.092467615871616 -8.378135803413475 0 0 0
563 9 1 0.3964 7.0119194461959164 -1.1110734200661185 -8.31947579554066 0 0 0
835 13 1 0.3964 10.599912471510516 2.0104363091739907 -8.462223861889328 0 0 0
818 13 4 -0.3964 10.49423292335833 3.19248441311076 -8.608707696532775 0 0 0
551 9 2 0.0265 6.877920636513297 -3.2423086366024316 -14.433589672279375 0 0 0
865 13 3 0.1268 11.902297339735814 1.612138454774172 -12.980224880558978 0 0 0
1066 16 3 0.1268 11.805163981484641 -3.380574058073754 -11.086463924304349 0 1 1
866 13 3 0.1268 11.675233424641332 2.7984650841602923 -10.89104012698876 0 0 0
595 9 3 0.1268 7.389059451235351 -3.889831121940052 -8.817385549750329 0 0 0
562 9 2 -0.1268 7.172300748902142 -3.9261369622269093 -10.966257196927053 0 0 0
823 13 2 0.0265 10.50985958218009 -0.05635817647484043 -14.71087072697258 0 0 0
619 10 2 0.0265 6.921960354636214 3.4795205049891047 -14.626274447248926 0 0 0
665 10 3 0.1268 6.270175213965286 2.3948713387346867 -7.870531746693792 0 0 0
869 13 3 0.1268 11.718458467883165 -0.43049883224808116 -7.706170173879517 0 0 0
545 9 5 -0.053 6.810238844953927 -3.924046700990407 -13.27627572208454 0 0 0
552 9 2 -0.1268 7.638136399832106 -2.056446154974558 -14.673324332035083 0 0 0
824 13 2 -0.1268 9.694092946805101 1.0690396426896474 -14.74522390630746 0 0 0
597 9 3 0.1268 5.997595344559997 -3.5974981442458462 -7.629195031516039 0 0 0
84 2 2 0 -0.5680351980771405 4.644004744273149 -9.08958213132172 0 0 0
82 2 2 -0.1268 -0.8794392750327817 4.52468800851309 -11.464824901594493 0 0 0
388 6 3 0.1268 2.3000018807127693 4.580963702413275 -10.647476069707174 0 0 0
113 2 3 0.1268 0.9526177491692449 4.704165481749275 -13.335438668824175 0 0 0
83 2 2 -0.1268 -0.9184124177297803 5.259984384249639 -10.29117966276542 0 0 0
347 6 2 0.0265 3.3419632557185794 6.135546970414778 -9.505519433320481 0 0 0
352 6 2 -0.1268 2.8367768378169895 5.619580029156822 -10.668392174151709 0 0 0
188 3 3 0.1268 0.4191110826444131 7.6582339622077775 -10.483353539759541 0 0 0
348 6 2 -0.1268 3.879822354855431 7.456096142367313 -9.531921709319121 0 0 0
181 3 3 0.1268 0.464332717672729 11.172692854990968 -13.562301464172986 0 0 0
154 3 2 -0.1268 0.10187735381851404 8.699662615585034 -10.603456217750963 0 0 0
153 3 2 -0.1268 0.11654656607982972 9.379858715131261 -9.385834390081904 0 0 0
152 3 2 0 -0.37437117834465394 10.714911780751073 -9.316983911707426 0 0 0
151 3 2 -0.1268 -0.8336020970589821 11.311786903114678 -10.492530406479954 0 0 0
150 3 2 -0.1268 -0.7882352827376728 10.671190908984016 -11.672261535838404 0 0 0
149 3 2 0.0265 -0.36313561597320687 9.369053078124512 -11.752022223821774 0 0 0
137 3 5 -0.053 -0.41800181115999147 8.627101212155715 -12.87947764429408 0 0 0
409 7 5 -0.053 3.2202196155330087 11.614531863731045 -13.128538776839969 0 0 0
426 7 2 -0.1268 2.701419002677044 11.567095000989436 -10.737335441192588 0 0 0
460 7 3 0.1268 2.283993682936095 10.534501944379421 -10.833640846430296 0 0 0
349 6 2 -0.1268 3.8301214326891078 8.164962394568287 -10.750917296662415 0 0 1
351 6 2 -0.1268 2.7978704746158085 6.298435179833399 -11.840727105748549 0 0 1
350 6 2 0.0265 3.336049848234002 7.582156419479547 -11.91539334935188 0 0 1
187 3 3 0.1268 0.5508524346414307 8.86445195307013 -8.546123764306312 0 0 0
387 6 3 0.1268 2.280148859312667 5.765034382607823 -12.673310287183726 0 0 1
344 6 5 -0.053 3.3065091540819767 8.340174846446152 -13.089872849208442 0 0 1
407 6 3 0.1268 4.259735899128373 5.8600856343383825 -13.620776090539978 0 0 1
459 7 3 0.1268 2.282993170753775 11.618319775195802 -8.666359962061433 0 0 0
185 3 3 0.1268 -1.4358541294066018 11.112568417694566 -12.439478182510374 0 0 0
117 2 3 0.1268 -1.1107056519411456 5.107862559000612 -12.393931895580073 0 0 0
143 3 2 0.0265 -0.2337649201333667 9.21729002710639 -14.102138452269307 0 0 0
341 6 5 -0.053 3.300919303079376 5.348810701247354 -8.390373816145411 0 0 0
155 3 1 0.3964 -0.2826555415250036 11.445415620249245 -8.016699845692903 0 0 0
386 6 3 0.1268 4.286813550363839 9.152884744864904 -10.837528429890678 0 0 1
87 2 1 0.3964 -0.7551072879618912 5.404596243235062 -7.763122459095032 0 0 0
70 2 4 -0.3964 -0.721541940025709 6.627446220603016 -7.781933126427562 0 0 0
385 6 3 0.1268 4.446867660891374 7.865586926193155 -8.678955033434178 0 0 0
118 2 3 0.1268 -1.1992634346337745 6.333232529269459 -10.300918356549005 0 0 0
186 3 3 0.1268 -1.3590508707668782 12.334942245575368 -10.380177330453385 0 0 0
383 6 2 -0.1268 3.871703634046286 6.455127571714167 -14.514063731045198 0 0 1
382 6 2 0.0265 3.3214670647281244 7.704454283506982 -14.282818188948431 0 0 1
421 7 2 0.0265 3.094541240629475 12.26468810326172 -11.883887732121138 0 0 0
425 7 2 -0.1268 2.552873471909007 12.255786473000748 -9.525829167768165 0 0 0
389 6 3 0.1268 2.3485341339032164 7.882533456942591 -7.96040923718427 0 0 0
144 3 2 -0.1268 0.27846006479722396 10.454769127449485 -14.336983214673479 0 0 0
184 3 3 0.1268 -0.8373783579822593 7.360159215505117 -14.965184015709406 0 0 0
626 10 2 -0.1268 6.504222373910029 4.563478812835813 -11.961579355259524 0 0 0
620 10 2 -0.1268 7.324694836629641 4.782970162614813 -14.857478816510744 0 0 0
936 14 3 0.1268 9.641471482018469 4.230136898634795 -11.234700613726574 0 0 0
628 10 2 0 6.840550288352315 4.414887023357066 -9.588737522967334 0 0 0
657 10 3 0.1268 7.874780450707339 5.223708853183885 -14.009984210688648 0 0 0
661 10 3 0.1268 6.191791609461935 5.1058542928122 -12.876401705849833 0 0 0
729 11 3 0.1268 6.094545555587873 11.219680724322574 -12.740699439955245 0 0 0
627 10 2 -0.1268 6.463340012182693 5.146088055298502 -10.726534207016748 0 0 0
662 10 3 0.1268 6.011547135736194 6.173875258460059 -10.649134783514736 0 0 0
885 14 5 -0.053 10.494787543658614 5.287390526992311 -13.468868702911774 0 0 0
897 14 2 0.0265 10.43466226663125 5.94017523248087 -12.264670715089958 0 0 0
901 14 2 -0.1268 9.960366073663998 5.907726951364326 -9.890123307567151 0 0 0
902 14 2 -0.1268 9.975293749088053 5.235126473355027 -11.126965282712963 0 0 0
732 11 3 0.1268 7.94227488941808 7.703238636257531 -10.93569168450234 0 0 0
898 14 2 -0.1268 11.06204412393758 7.167037727071426 -12.073262543335776 0 0 0
899 14 2 -0.1268 10.995776301257266 7.814698600520424 -10.858284216108082 0 0 0
900 14 2 0 10.511217942330854 7.202256943637648 -9.710342974402614 0 0 0
698 11 2 -0.1268 7.54175792694685 8.724519922533377 -10.968856225707572 0 0 0
697 11 2 -0.1268 7.486828884461614 9.277319031090116 -9.68077558651696 0 0 0
696 11 2 0 6.8268718061257765 10.465820333392386 -9.493023518887426 0 0 0
694 11 2 -0.1268 6.510917198431267 10.630524193608428 -11.890817470863768 0 0 0
693 11 2 0.0265 7.087344395894426 9.379537353157048 -12.129443834314728 0 0 0
681 11 5 -0.053 7.16010278825728 8.746776521076706 -13.368424208208179 0 0 0
1000 15 3 0.1268 9.030107647530874 11.104960375495498 -10.904800815589546 0 0 0
695 11 2 -0.1268 6.440024343610354 11.17769996831063 -10.64379746827261 0 0 0
725 11 3 0.1268 8.002284856587533 11.242528362554673 -13.9330401391894 0 0 0
935 14 3 0.1268 9.459116906890674 5.40832058298435 -9.01764889369328 0 0 0
731 11 3 0.1268 7.887671395179629 8.707126193337855 -8.828503293566275 0 0 0
929 14 3 0.1268 9.44708534024363 7.617820036057092 -13.885868338459819 0 0 0
631 10 1 0.3964 6.942623949353393 5.093657774140679 -8.278918559270112 0 0 0
614 10 4 -0.3964 7.017362621700412 6.325399346693867 -8.190046077492307 0 0 0
699 11 1 0.3964 6.755494077865611 11.203125005638945 -8.204631421759512 0 0 0
953 15 5 -0.053 9.971161180356862 11.883323270394293 -8.582260346846555 0 0 0
903 14 1 0.3964 10.421970929683122 7.883501739233441 -8.371041814223368 0 0 0
886 14 4 -0.3964 10.396165439011112 9.097628932808611 -8.43337906258416 0 0 0
933 14 3 0.1268 11.277640047664772 7.818760613645972 -12.935155294940012 0 0 0
964 15 2 -0.1268 9.59669671921666 12.066369258019742 -10.943356792644472 0 0 0
687 11 2 0.0265 7.030800334930316 9.470289062251643 -14.569411766479497 0 0 0
934 14 3 0.1268 11.451503764540009 8.839348581887618 -10.798616786595037 0 0 0
1019 15 3 0.1268 11.387382179667405 12.000298326130016 -13.847326896404828 0 0 1
733 11 3 0.1268 6.05450493677208 8.629924385667644 -7.73905924462409 0 0 0
688 11 2 -0.1268 7.511879649562593 10.742038030163883 -14.82185597955877 0 0 0
730 11 3 0.1268 6.039567351763999 12.213873368288658 -10.460064987158942 0 0 0
999 15 3 0.1268 9.12822109335089 12.330909592214292 -13.010228536515989 0 0 1
937 14 3 0.1268 11.488195017103653 5.221761483229926 -7.5950459283948595 0 0 0
891 14 2 0.0265 10.535036067825441 5.960606339423547 -14.662504330313645 0 0 0
892 14 2 -0.1268 9.939222768961221 7.227432909359356 -14.770471393739417 0 0 0
415 7 2 0.0265 3.1931648269714126 12.374216258878635 -14.298971611378587 0 0 0
138 3 4 -0.3964 -0.10794722848729332 12.681920515251091 -8.029154640577055 0 0 0
491 8 2 -0.1268 3.79474139791244 20.113865910745417 -10.65647080380841 0 0 0
254 4 3 0.1268 -0.9375189178142249 18.495948372723696 -10.565654402868063 0 0 0
525 8 3 0.1268 4.293316112067309 20.074829092591834 -12.708473445719068 0 0 0
495 8 1 0.3964 3.4315888073522283 20.228858404615536 -8.186404671070104 0 0 0
521 8 3 0.1268 2.30386909378217 20.08247203969745 -13.78364415839434 0 0 0
52 1 3 0.1268 0.6504862080391458 20.322918415093937 -10.742709061527057 0 -1 0
256 4 3 0.1268 -0.03951919846698537 13.591331796820514 -11.148633949188334 0 0 0
205 4 5 -0.053 -0.5692548275032698 14.733766754143462 -13.308351357391121 0 0 0
217 4 2 0.0265 -0.5803738714817566 15.458299887196413 -12.123083832212016 0 0 0
219 4 2 -0.1268 -0.6936929561455332 17.41284711614177 -10.720632609282266 0 0 0
220 4 2 0 -0.4195524763321561 16.620488631186028 -9.578899396217285 0 0 0
221 4 2 -0.1268 -0.15303506934116662 15.247289680161272 -9.70130862434729 0 0 0
222 4 2 -0.1268 -0.25499192804252746 14.658925362451258 -10.972724333644997 0 0 0
528 8 3 0.1268 2.407608194320476 16.607684276658063 -10.96845965908414 0 0 0
422 7 2 -0.1268 3.4880143284476874 13.648031203386543 -11.747966247780278 0 0 0
423 7 2 -0.1268 3.42880534223751 14.282066855759338 -10.538421647683279 0 0 0
424 7 2 0 2.9275384762477605 13.57899806976569 -9.408469312544181 0 0 0
457 7 3 0.1268 3.980652573997159 14.131997226567131 -12.617447040893344 0 0 0
489 8 2 0.0265 3.2602342895951377 18.277380309195827 -12.015087647680415 0 0 0
490 8 2 -0.1268 3.6891403786909187 19.580260746548667 -11.940175995825006 0 0 0
492 8 2 0 3.292584169011616 19.508206365221533 -9.487623821108837 0 0 0
493 8 2 -0.1268 2.7928577995522668 18.2460579608668 -9.648704746327049 0 0 0
494 8 2 -0.1268 2.82010236084594 17.59579304480117 -10.893885940600647 0 0 0
218 4 2 -0.1268 -0.7991984330055748 16.81896576933532 -11.97000615785723 0 0 0
477 8 5 -0.053 3.2894539987733626 17.60875436571746 -13.218331455551596 0 0 0
255 4 3 0.1268 -0.06258865519189438 14.621338709710523 -8.857367962928983 0 0 0
527 8 3 0.1268 2.4237398752517647 17.795214109626606 -8.719456348819088 0 0 0
249 4 3 0.1268 0.5336776030270212 17.288775911302913 -13.777723127076522 0 0 0
458 7 3 0.1268 4.0454290167078355 15.221501927400135 -10.398450446167812 0 0 0
223 4 1 0.3964 -0.23296658107121293 17.38109636343868 -8.235501692550407 0 0 0
453 7 3 0.1268 1.8698152008073885 14.022384468543207 -13.641454698495162 0 0 0
410 7 4 -0.3964 2.7579537482509604 15.551428092582364 -8.141738175458158 0 0 0
427 7 1 0.3964 2.7567108104949654 14.364578337524543 -8.174166623707482 0 0 0
206 4 4 -0.3964 -0.030976639141372164 18.609026914120484 -8.20818804552009 0 0 0
253 4 3 0.1268 -1.1435861023569813 17.511375127509133 -12.82004546166192 0 0 0
483 8 2 0.0265 3.247803185438422 18.23685043001219 -14.424291084578858 0 0 0
211 4 2 0.0265 -0.4970981487345374 15.432802683512579 -14.502691675194635 0 0 0
416 7 2 -0.1268 2.42970762003643 13.554801900071068 -14.451474715594852 0 0 0
484 8 2 -0.1268 2.689999415790819 19.481127324421912 -14.618713995672476 0 0 0
212 4 2 -0.1268 0.0725614134780539 16.707274454262375 -14.6256680460523 0 0 0
529 8 3 0.1268 3.8058164854645407 17.587066725802053 -7.531104405932899 0 0 0
995 15 2 -0.1268 10.928879047280292 12.492286875573695 -14.712304550409026 0 0 1
682 11 4 -0.3964 6.672223085384642 12.40442818572872 -8.181429887011394 0 0 0
959 15 2 0.0265 10.142161799385221 12.608052436488089 -9.75551036468164 0 0 0
1024 16 5 -0.053 10.850715650275824 20.459495200029778 -13.33120803355687 0 0 1
963 15 2 -0.1268 9.68292676572129 12.689628701081732 -12.151973341801096 0 0 1
1029 16 2 -0.1268 11.169203587529188 20.318586635731705 -10.98168453651968 0 0 1
1065 16 3 0.1268 11.722280048306402 20.312444759955092 -8.912535391352716 0 0 0
1063 16 2 -0.1268 10.957844596359932 18.41957819872595 -14.678391705942662 0 0 1
998 15 3 0.1268 11.56419930485319 15.423669812647463 -11.256016219498985 0 0 1
798 12 3 0.1268 5.754514337352566 18.144687331191243 -10.51921546344149 0 0 0
596 9 3 0.1268 7.363818566097411 19.627298519222435 -10.935208554581802 0 -1 0
1030 16 2 0.0265 10.584484094292096 19.874674107501427 -12.122970498858448 0 0 1
749 12 5 -0.053 6.691403211395084 14.44182044716007 -13.128487748559095 0 0 0
1067 16 3 0.1268 9.234716300743889 18.35520612110482 -12.780005472383293 0 0 1
1031 16 2 -0.1268 9.793405233307675 18.769194279965795 -11.90018658718969 0 0 1
961 15 2 -0.1268 10.927171715123617 14.523733602974312 -11.100747130771406 0 0 1
800 12 3 0.1268 7.52511091727073 13.508175712621574 -10.744134505883888 0 0 0
799 12 3 0.1268 7.762656894204843 14.878521452757086 -8.681006590162553 0 0 0
761 12 2 0.0265 6.734685894909109 15.140447554608512 -11.945288018203062 0 0 0
762 12 2 -0.1268 6.192825735544762 16.45200931926552 -11.9526291164816 0 0 0
763 12 2 -0.1268 6.232979039751813 17.16140028288047 -10.75408963157135 0 0 0
764 12 2 0 6.764538337287288 16.584343737511126 -9.620675044205855 0 0 0
765 12 2 -0.1268 7.242578392705573 15.306938632500144 -9.601031562538129 0 0 0
766 12 2 -0.1268 7.221149976781284 14.529477017831658 -10.761415949627315 0 0 0
1068 16 3 0.1268 9.209266816320367 17.051239892574955 -10.66461497339105 0 0 0
960 15 2 -0.1268 10.758614679002772 13.885899068575005 -9.880585525681877 0 0 0
1021 16 5 -0.053 10.574272328855807 17.83189907764524 -8.431752639824962 0 0 0
1027 16 2 0.0265 10.50614952420779 18.542969629278964 -9.571075940763869 0 0 0
1028 16 2 -0.1268 11.153604713970259 19.76523537873676 -9.742173676243713 0 0 0
1032 16 2 -0.1268 9.787223192010915 18.02995091868793 -10.704912521541488 0 0 0
962 15 2 0.0265 10.400963696728784 13.954557937073025 -12.264323038558873 0 0 1
797 12 3 0.1268 5.947316754814532 16.99687945298482 -12.850428321251519 0 0 0
793 12 3 0.1268 8.061778452569978 16.7027977156936 -13.572504331991619 0 0 0
956 15 5 -0.053 10.567239112030759 14.563492605002738 -13.441963622638756 0 0 1
755 12 2 0.0265 6.837581964704876 15.048379204501883 -14.373865102209564 0 0 0
767 12 1 0.3964 6.829315466229231 17.334480844575033 -8.317153026765222 0 0 0
1087 16 3 0.1268 11.291304864275252 17.826147456976656 -13.748495187568617 0 0 1
750 12 4 -0.3964 6.901973558498387 18.542065323846124 -8.254405089386161 0 0 0
1062 16 2 0.0265 10.585415115367221 19.754072727587356 -14.54856857368631 0 0 1
756 12 2 -0.1268 7.493426102971876 16.29860950507723 -14.447340120631281 0 0 0
994 15 2 0.0265 10.470037268463035 13.82265498927966 -14.602672859330236 0 0 1
1001 15 3 0.1268 9.582598317468053 14.51052635194968 -8.027541213811613 0 0 0
997 15 3 0.1268 11.209370899812363 14.296886575007628 -8.985991657493733 0 0 0
1069 16 3 0.1268 9.398324238804276 20.23888382139112 -7.910589481776289 0 0 0
801 12 3 0.1268 5.611572760630847 14.853086425845687 -7.564838421031629 0 0 0
121 2 3 0.1268 -1.5714920904674248 2.76955598756476 -7.085094291424855 0 0 0
285 5 2 0.0265 2.9605802570674964 -0.01397498034413136 -7.169101498470862 0 0 0
535 8 3 0.1268 4.285960609204261 -2.9671681293882477 -0.469480729517068 0 1 0
326 5 3 0.1268 2.4601011059972784 -1.6159635655631504 -0.46885920184549157 0 0 0
57 1 3 0.1268 -1.68770397671365 -1.2704422058068272 -2.5622408372848735 0 0 0
294 5 2 -0.1268 2.7764617507593075 -0.5517457763206024 -0.4820572407660606 0 0 0
286 5 2 -0.1268 2.354497315999688 1.2394791609976847 -7.01459790157438 0 0 0
20 1 2 0 -0.3898088426730393 -1.3297411052643873 -6.915927944521867 0 0 0
122 2 3 0.1268 -1.436472166767739 1.7619670569157027 -4.798573634067994 0 0 0
287 5 2 -0.1268 2.286423143772069 1.8625363594961017 -5.7522098926334895 0 0 0
290 5 2 -0.1268 3.503881186345609 -0.6540287097897424 -6.0421459266072635 0 0 0
322 5 3 0.1268 1.8310652119975668 2.871934580372014 -5.657166514834687 0 0 0
324 5 3 0.1268 3.6870610843291773 -1.7515372230384965 -6.070142389370941 0 0 0
288 5 2 0 2.896771101215209 1.2297936244239684 -4.679730855786225 0 0 0
289 5 2 -0.1268 3.50681269534972 -0.023335658638083956 -4.850234794073495 0 0 0
323 5 3 0.1268 4.143407440341846 -0.3864394546933769 -3.9633941350677375 0 0 0
94 2 2 0.0265 -0.44507549939982916 3.4243593837794393 -1.3828221632254074 0 0 0
91 2 2 0.0265 -0.6305153599965254 3.5069477873095423 -3.8229961730975646 0 0 0
90 2 2 -0.1268 -1.1296006704330313 2.819712003526446 -4.942308717873537 0 0 0
89 2 2 -0.1268 -1.1232613687942532 3.359915256730864 -6.266818754541504 0 0 0
71 2 5 -0.053 -0.4267023883377925 2.875089472614226 -2.6105356109959885 0 0 0
56 1 3 0.1268 -0.22435654007938766 0.5133416619865692 -5.750148515295626 0 0 0
55 1 3 0.1268 -0.1933201839192027 -0.8013906705069855 -3.488379248929988 0 0 0
27 1 2 -0.1268 -1.10157000192715 -1.6880225856339925 -1.7187468289739165 0 0 0
26 1 2 0.0265 -0.29334031855089937 -2.8270963416144284 -1.950157441607347 0 0 0
25 1 2 -0.1268 -0.2972294953211807 -0.5869735509906713 -5.672451146109973 0 0 0
24 1 2 -0.1268 -0.18784540607498812 -1.2937102835852685 -4.485120573807725 0 0 0
23 1 2 0.0265 -0.24685448102540564 -2.738260933054531 -4.397723168946985 0 0 0
21 1 2 -0.1268 -0.7314259084662842 -2.670373231371711 -6.848348390352042 0 0 0
291 5 1 0.3964 3.084710682370357 1.9160751658362685 -3.3473161562926634 0 0 0
292 5 2 0 3.243767267206934 1.2809257210090346 -1.9992888963477533 0 0 0
293 5 2 -0.1268 2.847467244455588 -0.05667446197272419 -1.7957010975242351 0 0 0
325 5 3 0.1268 2.541575816643106 -0.7147464093056457 -2.610934449321242 0 0 0
274 5 4 -0.3964 3.1786697798956203 3.1580741090295605 -3.3281622987564017 0 0 0
532 8 3 0.1268 2.635267237051604 -3.1494482027949244 -5.917199845749549 0 1 0
297 5 2 -0.1268 3.7127196800854625 1.9701563819516208 -0.8396960151888742 0 0 0
328 5 3 0.1268 3.92939606514906 3.0524165997184065 -0.9470901393963995 0 0 0
99 2 2 -0.1268 0.044801670264094984 2.7000874230531853 -0.2716246864176224 0 0 0
128 2 3 0.1268 0.5089706318239946 1.6633765550248603 -0.4855956572118352 0 0 0
22 1 2 -0.1268 -0.5491509241388015 -3.389102836819156 -5.635346691749893 0 0 0
31 1 2 -0.1268 0.4105771178294142 -3.339539826918436 -0.8407684597423746 0 0 0
28 1 2 -0.1268 -1.238847714994907 -1.1248141010444836 -0.4427638717852034 0 0 0
3 1 5 -0.053 -0.09782197339079435 -3.4216614418292055 -3.1810626540071674 0 0 0
58 1 3 0.1268 -1.7848551545071176 -0.15739390942268106 -0.42861367337254386 0 0 0
506 8 2 -0.1268 3.8399845646827595 -3.976119360192289 -0.4963622824143883 0 1 0
531 8 3 0.1268 2.463966050905075 -4.065613423120487 -3.728208495093199 0 1 0
836 13 2 0 10.599038939155891 1.3465979352306272 -7.123660355679002 0 0 0
846 13 2 -0.1268 10.905190828573707 2.122975465818663 -0.5233693630082605 0 0 0
837 13 2 -0.1268 11.223632336068674 0.08116750224372371 -6.87611852406412 0 0 0
633 10 2 -0.1268 6.435139637763745 2.955839648279756 -7.005147440865455 0 0 0
564 9 2 0 6.9426556895119855 -1.805378661707179 -6.938820576717539 0 0 0
843 13 2 -0.1268 9.817242269455557 -0.26759710631741296 -1.0320046904878044 0 0 0
873 13 3 0.1268 9.303391621079088 -1.1654658690616202 -1.3337512222838708 0 0 0
565 9 2 -0.1268 6.432606532490025 -3.081283886754586 -6.782364406741255 0 0 0
601 9 3 0.1268 5.540659735957631 -1.102840914757845 -2.369561281348261 0 0 0
870 13 3 0.1268 11.72492214568184 -1.354855918654494 -5.267576784820934 0 0 0
672 10 3 0.1268 7.585364561586376 1.1860768654529226 -1.0644646791331418 0 0 0
666 10 3 0.1268 5.992294525030873 1.2660661933276929 -5.770837271293615 0 0 0
634 10 2 -0.1268 6.269957315965579 2.3106771328500892 -5.774139642344494 0 0 0
569 9 2 -0.1268 7.394928317164693 -1.0728600712081975 -5.841994121495539 0 0 0
600 9 3 0.1268 7.7340991289350765 -0.08749754383165076 -6.074638765306991 0 0 0
847 13 2 -0.1268 11.068045022695934 1.602858535383449 -1.8060012586361616 0 0 0
871 13 3 0.1268 9.624913648775031 2.2147000177497045 -4.0291831663268365 0 0 0
638 10 2 0.0265 6.603951903329625 2.6910398446545543 -2.2033599951966316 0 0 0
635 10 2 0.0265 6.804974332945598 2.8642484051749326 -4.603640623797883 0 0 0
615 10 5 -0.053 6.943488820778395 2.215204317321092 -3.4395238878942376 0 0 0