LAMMPS data file via write_data, version 29 Aug 2024, timestep = 1000000, units = real

2176 atoms
5 atom types
2368 bonds
5 bond types
3776 angles
7 angle types
5632 dihedrals
10 dihedral types
1216 impropers
4 improper types

-2.294332786041821 26.692512786039284 xlo xhi
-3.9451140571800707 20.445114057182085 ylo yhi
-14.984340806639763 14.984340806639763 zlo zhi

Atom Type Labels

1 c_0
2 cp
3 hc
4 o_1
5 oc

Bond Type Labels

1 c_0-cp
2 c_0-o_1
3 cp-cp
4 cp-hc
5 cp-oc

Angle Type Labels

1 c_0-cp-cp
2 cp-c_0-cp
3 cp-c_0-o_1
4 cp-cp-cp
5 cp-cp-hc
6 cp-cp-oc
7 cp-oc-cp

Dihedral Type Labels

1 cp-c_0-cp-cp
2 o_1-c_0-cp-cp
3 c_0-cp-cp-cp
4 cp-cp-cp-cp
5 c_0-cp-cp-hc
6 cp-cp-cp-hc
7 hc-cp-cp-hc
8 cp-cp-cp-oc
9 hc-cp-cp-oc
10 cp-cp-oc-cp

Improper Type Labels

1 c_0-cp-cp-cp-nb==3
2 cp-c_0-cp-o_1-nb==3
3 cp-cp-cp-hc-nb==3
4 cp-cp-cp-oc-nb==3

Masses

1 12.01115
2 12.01115
3 1.00797
4 15.9994
5 15.9994

Pair Coeffs # lj/class2/coul/long

1 0.12 3.308
2 0.064 4.01
3 0.02 2.3
4 0.267 3.3
5 0.24 3.535

Bond Coeffs # morse

1 82.6961 2.1 1.489
2 190.966 2.2 1.216
3 150 1.9 1.417
4 98.2315 2.1 1.0982
5 85.5641 2.3 1.3768

Angle Coeffs # class2xe

1 108.4 43.9594 -8.3924 -9.3379
2 110.588 34.6214 -7.0939 -7.4032
3 119.3 65.1016 -17.9766 0
4 118.9 61.0226 -34.9931 0
5 117.94 35.1558 -12.4682 0
6 123.42 73.6781 -21.6787 0
7 109.5 60 0 0

BondBond Coeffs

1 116.348 0 1.489 1.417
2 82.6961 0 1.489 1.489
3 136.831 0 1.489 1.216
4 150 0.477094 1.417 1.417
5 124.116 0.0659451 1.417 1.0982
6 117.782 0.453635 1.417 1.3768
7 85.5641 0 1.3768 1.3768

BondAngle Coeffs

1 82.6961 150 0 0 1.489 1.417
2 82.6961 82.6961 0 0 1.489 1.489
3 82.6961 190.966 0 0 1.489 1.216
4 150 150 0.310219 0.310219 1.417 1.417
5 150 98.2315 0.25822 0.3511 1.417 1.0982
6 150 85.5641 0.441509 0.793248 1.417 1.3768
7 85.5641 85.5641 0 0 1.3768 1.3768

Dihedral Coeffs # class2xe

1 0 0 2.5 0 0 0
2 0 0 0.9063 0 0 0
3 0 0 4.6282 0 0 0
4 8.3667 0 1.1932 0 0 0
5 0 0 2.167 0 0 0
6 0 0 3.9661 0 0 0
7 0 0 1.8769 0 0 0
8 0 0 4.8498 0 0 0
9 0 0 1.7234 0 0 0
10 0 0 1.8 0 0 0

AngleAngleTorsion Coeffs

1 0 110.588 108.4
2 0 119.3 108.4
3 0 108.4 118.9
4 0 118.9 118.9
5 0 108.4 117.94
6 -4.8141 118.9 117.94
7 0.3598 117.94 117.94
8 -21.0247 118.9 123.42
9 4.2296 117.94 123.42
10 0 123.42 109.5

EndBondTorsion Coeffs

1 2.1 1.9 0 0 0 0 0 0 1.489 1.417
2 2.2 1.9 0 0 0 0 0 0 1.216 1.417
3 2.1 1.9 0 0 0 0 0 0 1.489 1.417
4 1.9 1.9 -0.1185 6.3204 0 -0.1185 6.3204 0 1.417 1.417
5 2.1 2.1 0 0 0 0 0 0 1.489 1.0982
6 1.9 2.1 0 -6.8958 0 0 -0.4669 0 1.417 1.0982
7 2.1 2.1 0 -0.689 0 0 -0.689 0 1.0982 1.0982
8 1.9 2.3 0 0.2655 0 0 4.8905 0 1.417 1.3768
9 2.1 2.3 0 -1.5867 0 0 4.2641 0 1.0982 1.3768
10 1.9 2.3 0 0 0 0 0 0 1.417 1.3768

MiddleBondTorsion Coeffs

1 2.1 0 0 0 1.489
2 2.1 0 0 0 1.489
3 1.9 0 0 0 1.417
4 1.9 27.5989 -2.312 0 1.417
5 1.9 0 0 0 1.417
6 1.9 0 -1.1521 0 1.417
7 1.9 0 4.8228 0 1.417
8 1.9 0 4.8255 0 1.417
9 1.9 0 5.5432 0 1.417
10 2.3 0 0 0 1.3768

BondBond13 Coeffs

1 116.348 0 1.489 1.417
2 170.483 0 1.216 1.417
3 116.348 0 1.489 1.417
4 150 0.420317 1.417 1.417
5 90.4638 0 1.489 1.0982
6 124.116 0.158982 1.417 1.0982
7 98.2315 0.0932321 1.0982 1.0982
8 117.782 0.0975929 1.417 1.3768
9 91.8978 0.105655 1.0982 1.3768
10 117.782 0 1.417 1.3768

AngleTorsion Coeffs

1 0 0 0 0 0 0 110.588 108.4
2 0 0 0 0 0 0 119.3 108.4
3 0 0 0 0 0 0 108.4 118.9
4 1.9767 1.0239 0 1.9767 1.0239 0 118.9 118.9
5 0 0 0 0 0 0 108.4 117.94
6 0 2.5014 0 0 2.7147 0 118.9 117.94
7 0 2.4501 0 0 2.4501 0 117.94 117.94
8 0 10.0155 0 0 1.7404 0 118.9 123.42
9 0 1.8729 0 0 2.5706 0 117.94 123.42
10 0 0 0 0 0 0 123.42 109.5

Improper Coeffs # class2

1 10 0
2 38.7949 0
3 4.8912 0
4 13.0421 0

AngleAngle Coeffs

1 0 0 0 108.4 118.9 108.4
2 0 0 0 110.588 119.3 119.3
3 0 0 0 118.9 117.94 117.94
4 0 0 0 118.9 123.42 123.42

Atoms # full

13 1 2 0.0265 -0.4336553269138783 -2.885121370501299 -12.261890693319721 0 0 0
14 1 2 -0.1268 -0.891910945153163 -1.607989109514055 -11.980430466743126 0 0 0
15 1 2 -0.1268 -0.8173174020866829 -1.0070518911069906 -10.707558458848283 0 0 0
16 1 2 0 -0.3601632614064323 -1.8742748960093327 -9.674238044446486 0 0 0
17 1 2 -0.1268 -0.060257046417961035 -3.235120450626352 -9.86609689063032 0 0 0
45 1 3 0.1268 0.597790876144654 -0.9870557955322354 -13.997883420997352 0 0 0
69 2 5 -0.053 -0.5937361805202885 2.583939416279663 -13.216853629405035 0 0 0
120 2 3 0.1268 0.7082454913675873 1.7401396217452723 -11.113484957663802 0 0 0
81 2 2 0.0265 -0.45762055734257023 3.233626177257001 -12.040165268634388 0 0 0
86 2 2 -0.1268 0.04113316647434706 2.613607580365797 -10.906329128646057 0 0 0
85 2 2 -0.1268 0.18265553701609294 3.213619857460876 -9.63794770820498 0 0 0
279 5 2 0.0265 3.2107045106547147 0.3037725508783229 -9.700930628669429 0 0 0
280 5 2 -0.1268 3.658814421760318 1.6349798637228279 -9.865849196070574 0 0 0
284 5 2 -0.1268 2.933896118063556 -0.42195277788429975 -10.860642256573978 0 0 0
281 5 2 -0.1268 3.6167555252178163 2.276638385953814 -11.08877844804444 0 0 1
320 5 3 0.1268 2.537723078019474 -1.3941269272290864 -10.772743892949414 0 0 0
119 2 3 0.1268 0.7057950785602158 2.6367663383760584 -8.851908828051045 0 0 0
283 5 2 -0.1268 2.647501388408176 0.2564627340189132 -12.018395764853198 0 0 1
282 5 2 0.0265 3.043426343667198 1.5920665686838555 -12.177297545153909 0 0 1
319 5 3 0.1268 2.409462542754829 -0.3440092027038544 -12.908265656291274 0 0 1
276 5 5 -0.053 2.9401754044810913 2.2871804670923632 -13.359506044121266 0 0 1
339 5 3 0.1268 4.11936526574255 -0.15146257296688104 -13.892130179998425 0 0 1
50 1 3 0.1268 -1.253162119822226 0.006600777426894133 -10.520920628177636 0 0 0
49 1 3 0.1268 -0.9714483551217732 -0.9348244173826417 -12.867359872572202 0 0 0
19 1 1 0.3964 -0.2816842542495559 -1.1155026050628218 -8.342673669422556 0 0 0
317 5 3 0.1268 4.130761544194053 2.068745546534622 -8.978539719589051 0 0 0
478 8 4 -0.3964 2.9402231555071303 -2.9844194147120104 -8.141441366165852 0 1 0
526 8 3 0.1268 4.247050463121075 -3.4223005651776504 -10.493734238164592 0 1 0
2 1 4 -0.3964 -0.15228799592671693 0.10227274716243606 -8.284367811208906 0 0 0
273 5 5 -0.053 3.2085200284697484 -0.37522773677520593 -8.4890610908767 0 0 0
75 2 2 0.0265 -0.5990652709625655 3.2803094070155723 -14.472730847595342 0 0 0
318 5 3 0.1268 4.1197207545428025 3.215549688808909 -11.303426847415027 0 0 1
314 5 2 0.0265 2.950660077416459 1.5772470093864248 -14.542149808063828 0 0 1
1 1 5 -0.053 -0.45139751543246165 -3.4227368634992072 -13.491230073305301 0 0 0
51 1 3 0.1268 0.43833242139385664 -3.8466707460930154 -9.050888366856459 0 0 0
7 1 2 0.0265 -0.3733846460973824 -2.7494561215827567 -14.690163933487268 0 0 0
18 1 2 -0.1268 -0.10624851898490828 -3.6956952321568224 -11.163914616184982 0 0 0
315 5 2 -0.1268 3.5902517424292864 0.33095505475087883 -14.679023998080112 0 0 1
8 1 2 -0.1268 0.13531720050860274 -1.457250413977773 -14.81565233820309 0 0 0
321 5 3 0.1268 2.2627480021613833 2.2586795037797973 -7.825614471062422 0 0 0
121 2 3 0.1268 -1.0109131243931264 2.629749601549281 -7.67485828603368 0 0 0
53 1 3 0.1268 -1.3775176345301934 -3.750714202673308 -7.79181097072362 0 0 0
593 9 3 0.1268 5.916139739509877 -1.1485681190782042 -12.669316164853361 0 0 0
594 9 3 0.1268 5.963342997087127 -0.12392716706189777 -10.41909555091511 0 0 0
557 9 2 0.0265 6.551728989796855 -3.098242397003721 -11.916192380510156 0 0 0
558 9 2 -0.1268 6.216221216888149 -1.7627645954296223 -11.796938029439065 0 0 0
559 9 2 -0.1268 6.271088405418482 -1.159808957566459 -10.554020823341805 0 0 0
560 9 2 0 6.655383500932855 -1.8721991535741318 -9.371811297300283 0 0 0
561 9 2 -0.1268 6.904378563217392 -3.2788068199669986 -9.513033458979994 0 0 0
664 10 3 0.1268 7.233020728871637 1.3416972795964046 -11.51027254745844 0 0 0
663 10 3 0.1268 7.575909549807097 2.333872955801021 -9.25395743347203 0 0 0
630 10 2 -0.1268 7.005083554617695 2.421059249461898 -11.280989167100836 0 0 0
629 10 2 -0.1268 7.1731961882307385 3.033097478730978 -10.026432502664765 0 0 0
817 13 5 -0.053 10.05203628280288 -0.7366025341808449 -13.35280969786227 0 0 0
829 13 2 0.0265 10.169789200840002 -0.13011046301276918 -12.13793453352002 0 0 0
830 13 2 -0.1268 10.834615823341101 1.1007034958584674 -11.99566410752142 0 0 0
831 13 2 -0.1268 10.95580964096612 1.7546400289188568 -10.749299352106094 0 0 0
832 13 2 0 10.52191626649018 1.0800673303353667 -9.57617972113919 0 0 0
833 13 2 -0.1268 9.96035126431929 -0.14921220458638862 -9.794006362992196 0 0 0
834 13 2 -0.1268 9.808773754515888 -0.7907606537147731 -10.993540785088914 0 0 0
868 13 3 0.1268 9.356332991766578 -1.822902121051396 -11.044212929881922 0 0 0
625 10 2 0.0265 6.542608169966838 3.2212525941658106 -12.384428314236404 0 0 0
867 13 3 0.1268 9.62935498537163 -0.7766926108601253 -8.94708293023183 0 0 0
818 13 4 -0.3964 10.64736295161281 2.9302598656185257 -8.152978575773968 0 0 0
589 9 3 0.1268 7.249869117376003 -1.1473472228546817 -13.700400255304942 0 0 0
613 10 5 -0.053 6.385052639999161 2.582740433043207 -13.562945450418313 0 0 0
563 9 1 0.3964 6.707522078586992 -1.1001098888107292 -8.01038604844507 0 0 0
861 13 3 0.1268 9.19056243128381 1.9272141896234611 -13.89919018937802 0 0 0
546 9 4 -0.3964 6.829995881717279 0.09094234780954924 -8.113160365084916 0 0 0
835 13 1 0.3964 10.439004307818598 1.7601651612055162 -8.225271472386618 0 0 0
1066 16 3 0.1268 11.432590251275 -3.3671822454716485 -10.906577128790026 0 1 1
866 13 3 0.1268 11.180030263308227 2.8399025430114886 -10.61427455092316 0 0 0
865 13 3 0.1268 11.368702328935642 1.4649166775408737 -12.885220811327404 0 0 0
562 9 2 -0.1268 6.941405377870124 -3.821608119882354 -10.75389000004794 0 0 0
665 10 3 0.1268 5.6875214929738735 2.7853718635690212 -7.930693339607889 0 0 0
545 9 5 -0.053 6.395530273561068 -3.7424045129331764 -13.127045320428937 0 0 0
551 9 2 0.0265 6.4750750013561085 -3.029070933578856 -14.31278230450133 0 0 0
552 9 2 -0.1268 6.948694734331335 -1.7508630477988376 -14.531143359355628 0 0 0
619 10 2 0.0265 6.339510244713381 3.2631923289126554 -14.786640761351265 0 0 0
595 9 3 0.1268 7.265709110346048 -3.8507475120768206 -8.626400929528309 0 0 0
823 13 2 0.0265 10.055058736836626 0.025580889309734012 -14.588650438730504 0 0 0
824 13 2 -0.1268 9.740131979354802 1.3544485207162067 -14.725289968897572 0 0 0
936 14 3 0.1268 9.61856683960882 4.14544456662655 -11.26326544157316 0 0 0
76 2 2 -0.1268 0.10016215515606497 4.4929392170393605 -14.694147074349786 0 0 0
82 2 2 -0.1268 -0.978443720971873 4.526992840424683 -11.803678036950757 0 0 0
84 2 2 0 -0.1734237946536834 4.527316713362861 -9.504380766175167 0 0 0
388 6 3 0.1268 2.0756274710622247 4.520703201176239 -10.692668096521096 0 0 0
113 2 3 0.1268 0.6005014315288015 4.9859256279658535 -13.821704796705099 0 0 0
117 2 3 0.1268 -1.4404443986517588 5.02701231504782 -12.659926185438742 0 0 0
83 2 2 -0.1268 -0.7726221464639984 5.2199742842127375 -10.596717562204411 0 0 0
347 6 2 0.0265 3.2451977305352893 6.090550516409239 -9.613304821021874 0 0 0
352 6 2 -0.1268 2.6891033446499586 5.453683824016133 -10.745695365921843 0 0 0
188 3 3 0.1268 0.6764309473185586 7.432763451183893 -10.922685541712859 0 0 0
348 6 2 -0.1268 3.917718756134197 7.286844765932242 -9.81526157992078 0 0 0
181 3 3 0.1268 0.663960857473763 11.042755120098294 -13.745333997212844 0 0 0
154 3 2 -0.1268 0.20722305487938275 8.416048224840894 -10.798550736525623 0 0 0
153 3 2 -0.1268 0.21911744816820766 8.965552475409668 -9.530767368699323 0 0 0
152 3 2 0 -0.2653356020900537 10.224360864839923 -9.373315067563754 0 0 0
151 3 2 -0.1268 -0.7633600987973097 10.969588372656466 -10.47272698123265 0 0 0
150 3 2 -0.1268 -0.8962538957158708 10.395742137989549 -11.734205005325142 0 0 0
149 3 2 0.0265 -0.26066913466034913 9.129955638457446 -11.927026508598075 0 0 0
137 3 5 -0.053 -0.12679867523395316 8.483489264347996 -13.152668450739954 0 0 0
409 7 5 -0.053 3.427690572674466 11.484917410928809 -12.718804953916642 0 0 0
426 7 2 -0.1268 2.8051457037929426 11.553055562434455 -10.419787875612737 0 0 0
460 7 3 0.1268 2.20657385308799 10.651032014109605 -10.514191361862459 0 0 0
349 6 2 -0.1268 3.9763626505928187 7.864478443759019 -11.103511209915162 0 0 1
351 6 2 -0.1268 2.8103161296244714 6.010066793912792 -12.02778355743189 0 0 1
350 6 2 0.0265 3.392152217449519 7.248487092210871 -12.219567317821749 0 0 1
187 3 3 0.1268 0.6066154023835879 8.417451046257442 -8.660514880784788 0 0 0
387 6 3 0.1268 2.3951372255222596 5.429623786937244 -12.928080273643403 0 0 1
344 6 5 -0.053 3.466882996828897 7.953438787320248 -13.365252811124126 0 0 1
407 6 3 0.1268 4.177433470842803 5.304090155552396 -13.998033673114904 0 0 1
341 6 5 -0.053 2.9956653717863793 5.366118831604783 -8.442740385758228 0 0 0
143 3 2 0.0265 -0.14954733758638783 9.100541249388792 -14.36748398858338 0 0 0
185 3 3 0.1268 -1.118018676594985 10.967941711587342 -12.616233895538187 0 0 0
118 2 3 0.1268 -1.1410891206029135 6.237195996395496 -10.420247490118037 0 0 0
386 6 3 0.1268 4.182393435024115 8.970690006838675 -11.135806449597943 0 0 1
459 7 3 0.1268 2.304031538264903 11.79021707684775 -8.425876987230406 0 0 0
385 6 3 0.1268 4.453078960881822 7.642936115187615 -8.962589566241668 0 0 0
155 3 1 0.3964 -0.3193121022910781 10.952871231479365 -8.083581463604407 0 0 0
382 6 2 0.0265 3.5020718405042155 7.321437707820946 -14.59809413133276 0 0 1
144 3 2 -0.1268 0.2778053446127853 10.415441924668112 -14.551857170611859 0 0 0
87 2 1 0.3964 -0.11098978369546675 5.203747821969612 -8.190644108988202 0 0 0
70 2 4 -0.3964 -0.169905718198462 6.388421958308051 -8.094379554220609 0 0 0
383 6 2 -0.1268 3.7564605221842644 5.9574267026081245 -14.754882786213212 0 0 1
186 3 3 0.1268 -1.1149046631127875 11.987547376287138 -10.225876987239534 0 0 0
421 7 2 0.0265 3.4136898553284523 12.145032887007094 -11.539499745875787 0 0 0
415 7 2 0.0265 3.379150763868794 12.177833893414132 -13.930164958831764 0 0 0
389 6 3 0.1268 1.9794187418948486 7.859567187103417 -7.752600291402278 0 0 0
138 3 4 -0.3964 -0.22561575189531613 12.178649551959538 -8.050884288029234 0 0 0
626 10 2 -0.1268 6.267630908946126 4.540975689655953 -12.165606778834887 0 0 0
620 10 2 -0.1268 6.908264525140726 4.50939913251773 -14.983261532425194 0 0 0
628 10 2 0 6.811654822112038 4.405522847816396 -9.81154806036061 0 0 0
657 10 3 0.1268 7.428929389598952 5.11644728642054 -14.218645116127526 0 0 0
661 10 3 0.1268 5.945525468817644 5.19596727860522 -12.978950302253654 0 0 0
627 10 2 -0.1268 6.412689089910778 5.14108632553074 -10.921007390733624 0 0 0
662 10 3 0.1268 6.511461238344188 6.214744284797391 -10.631857665888395 0 0 0
885 14 5 -0.053 10.546369273574609 5.109667754095179 -13.460418978302329 0 0 0
897 14 2 0.0265 10.478048306210182 5.796244689378874 -12.281506100841625 0 0 0
901 14 2 -0.1268 9.919067768224421 5.812025028022585 -9.93389721992184 0 0 0
902 14 2 -0.1268 9.94877260577786 5.197527423941569 -11.165719563212324 0 0 0
732 11 3 0.1268 7.8521746511518895 7.473394437258037 -10.886724632668734 0 0 0
898 14 2 -0.1268 10.992657090232491 7.079081942242551 -12.122829793792903 0 0 0
899 14 2 -0.1268 10.99414514933184 7.697559160377828 -10.898488727482558 0 0 0
900 14 2 0 10.438796782892188 7.071743924857639 -9.746280870544922 0 0 0
698 11 2 -0.1268 7.356876088328832 8.472880584529971 -10.870064300426012 0 0 0
697 11 2 -0.1268 7.391635752198113 9.131159831188835 -9.657720111448175 0 0 0
696 11 2 0 6.947729062358565 10.43494248794598 -9.476386619253248 0 0 0
694 11 2 -0.1268 6.38108089109498 10.461678951563696 -11.872322972810762 0 0 0
693 11 2 0.0265 6.866225863134352 9.126025314045634 -12.002519279263531 0 0 0
681 11 5 -0.053 6.781456039445132 8.445771867861126 -13.23286526285261 0 0 0
1000 15 3 0.1268 9.741332646642993 10.826743568384748 -10.477924141846295 0 0 0
729 11 3 0.1268 5.9674356622400015 11.009782151814441 -12.68638074920371 0 0 0
695 11 2 -0.1268 6.466676243410875 11.078641986172618 -10.600142613472993 0 0 0
725 11 3 0.1268 7.9592781006004305 10.755163426702907 -13.742408615381176 0 0 0
935 14 3 0.1268 9.385701317134096 5.323454390495231 -9.11169520399168 0 0 0
731 11 3 0.1268 7.852206261409798 8.657301567292254 -8.75283779446153 0 0 0
903 14 1 0.3964 10.482649120003234 7.912803595391175 -8.527968351011491 0 0 0
886 14 4 -0.3964 10.657335914890913 9.11320857735659 -8.637592676791236 0 0 0
929 14 3 0.1268 9.349458263171302 7.656354017695945 -14.100318921901064 0 0 0
631 10 1 0.3964 7.028042512643129 5.074884623550412 -8.479649429161615 0 0 0
614 10 4 -0.3964 7.2864837932390145 6.255752135706524 -8.44455664039333 0 0 0
699 11 1 0.3964 6.888575558458134 11.052700447186306 -8.146849288912549 0 0 0
953 15 5 -0.053 10.869918880424244 11.72909055152371 -8.30110264596987 0 0 0
964 15 2 -0.1268 10.143292689608542 11.843802325814675 -10.575593633562688 0 0 0
933 14 3 0.1268 11.55164197073101 7.491208570218701 -12.942984942129945 0 0 0
934 14 3 0.1268 11.45295247365961 8.71879379218429 -10.813366597807057 0 0 0
1019 15 3 0.1268 11.358513191397712 11.979409586597912 -13.552743410178667 0 0 1
891 14 2 0.0265 10.465108585586497 5.866567345619842 -14.643814715087652 0 0 0
687 11 2 0.0265 6.930801798907142 9.092411017235335 -14.451312952170367 0 0 0
999 15 3 0.1268 9.389854211482875 12.10725916630728 -12.560098021824274 0 0 1
730 11 3 0.1268 6.0085970792139065 12.074464938671621 -10.460561682528589 0 0 0
892 14 2 -0.1268 9.907704368197871 7.096301151788346 -14.816237173783305 0 0 0
733 11 3 0.1268 6.336557456258793 8.301899791799176 -7.603177375633962 0 0 0
937 14 3 0.1268 11.125129489542795 5.183003762171362 -7.880625814974335 0 0 0
682 11 4 -0.3964 6.8872245098464475 12.27509814631237 -8.105548991957997 0 0 0
688 11 2 -0.1268 7.591302832260174 10.29406297361469 -14.651484255437135 0 0 0
425 7 2 -0.1268 2.678798126786912 12.333764851979975 -9.295893784384086 0 0 0
254 4 3 0.1268 -1.467872940336016 18.251507460205328 -10.290998183758212 0 0 0
525 8 3 0.1268 3.894349002771823 20.19707431466249 -12.685919755801605 0 0 0
491 8 2 -0.1268 3.6137794763074202 20.071733872266048 -10.544769603794602 0 0 0
495 8 1 0.3964 3.0032761112435225 20.193379665997796 -8.137590258820621 0 0 0
521 8 3 0.1268 1.7362505510269326 19.853152592545282 -13.609634607895632 0 0 0
52 1 3 0.1268 0.2675451795834438 19.7091337234529 -11.319369207931848 0 -1 0
256 4 3 0.1268 0.008329439264595617 13.51853102884986 -11.110000660549002 0 0 0
205 4 5 -0.053 -0.8067868988337477 14.74186456017162 -13.281324320091715 0 0 0
217 4 2 0.0265 -0.72698900276322 15.36877127015806 -12.028889754205787 0 0 0
219 4 2 -0.1268 -0.9629765940709143 17.25811875449649 -10.525880907827965 0 0 0
220 4 2 0 -0.45011599218907783 16.534526848337293 -9.416829774078595 0 0 0
221 4 2 -0.1268 0.01655039936304048 15.231855625136518 -9.674322649518825 0 0 0
222 4 2 -0.1268 -0.18608226523811222 14.622769260578409 -10.953237774816664 0 0 0
528 8 3 0.1268 2.1825409901635995 16.489966979685338 -10.886116229191403 0 0 0
422 7 2 -0.1268 3.8347991360011484 13.509977769053851 -11.405923699416633 0 0 0
423 7 2 -0.1268 3.6709408385048015 14.222349910408337 -10.236831558297984 0 0 0
424 7 2 0 3.1340005408134655 13.623150866785586 -9.156452402790475 0 0 0
453 7 3 0.1268 2.281214429521058 14.071237279703809 -13.243183732526063 0 0 0
489 8 2 0.0265 3.0633188153625213 18.179671631874385 -11.912143976168299 0 0 0
490 8 2 -0.1268 3.5509112425288363 19.50604383401438 -11.81410022238314 0 0 0
492 8 2 0 3.190789399486639 19.38081268339385 -9.384095368025728 0 0 0
493 8 2 -0.1268 2.5444867791687287 18.13095553384761 -9.525427665281345 0 0 0
494 8 2 -0.1268 2.6234171265103257 17.489518819859434 -10.7794329919744 0 0 0
218 4 2 -0.1268 -1.1714441353742373 16.695224505782882 -11.74731270631509 0 0 0
477 8 5 -0.053 3.1299892232198543 17.3984955013667 -13.051729923818018 0 0 0
255 4 3 0.1268 0.5563389580345759 14.621464224417643 -8.980770595897265 0 0 0
527 8 3 0.1268 2.0182741127694026 17.688251976114522 -8.703568754997015 0 0 0
249 4 3 0.1268 0.5441430634346331 16.964066409447035 -13.715769065367795 0 0 0
458 7 3 0.1268 4.0927982791230395 15.243543516063326 -10.19731734176873 0 0 0
206 4 4 -0.3964 -0.3973615554845398 18.490243895475498 -8.021753050250428 0 0 0
457 7 3 0.1268 4.4299849257307 13.982032639788184 -12.193472474861482 0 0 0
427 7 1 0.3964 3.128139904143655 14.380142157271248 -7.865146306978193 0 0 0
223 4 1 0.3964 -0.43909148886478566 17.260561530736478 -8.114649395830572 0 0 0
410 7 4 -0.3964 3.1368256556851026 15.612242422022184 -7.921534368295967 0 0 0
253 4 3 0.1268 -1.6036792413373455 17.310233818873467 -12.50902051248208 0 0 0
483 8 2 0.0265 3.012227922905124 18.122188339384568 -14.225556247928818 0 0 0
484 8 2 -0.1268 2.315508945863618 19.334269251584388 -14.401182472508427 0 0 0
257 4 3 0.1268 -1.3662719766438602 14.63725516331051 -7.639746077600182 0 0 0
211 4 2 0.0265 -0.8667943479545939 15.509232682968687 -14.412819232453101 0 0 0
212 4 2 -0.1268 -0.13421517952318984 16.687166695508417 -14.494816976916788 0 0 0
416 7 2 -0.1268 2.7609049464069075 13.418245085706829 -14.006808091862816 0 0 0
529 8 3 0.1268 4.226059432530322 18.046567172425846 -7.539865212862144 0 0 0
995 15 2 -0.1268 10.84383325425974 12.449117956125153 -14.434899075084335 0 0 1
1024 16 5 -0.053 10.407513472492925 20.28840792372627 -13.03683310972376 0 0 1
1069 16 3 0.1268 9.244694448457373 19.981678091887677 -7.561885322999198 0 0 0
1029 16 2 -0.1268 10.935093685445075 20.05501187808339 -10.797784532542913 0 0 1
959 15 2 0.0265 10.694905620476437 12.464303621407922 -9.462397604406874 0 0 0
963 15 2 -0.1268 9.952736279078776 12.499736660893543 -11.770536552518696 0 0 1
997 15 3 0.1268 11.59674805096431 14.293449043173524 -8.71870739158097 0 0 0
1065 16 3 0.1268 11.260241352106386 19.902875096512922 -8.641281816905604 0 0 0
798 12 3 0.1268 5.512958738407939 18.09181025357732 -10.410797256483733 0 0 0
797 12 3 0.1268 5.368716418355589 17.050757237699532 -12.478860254863575 0 0 0
1087 16 3 0.1268 11.5556286236324 17.802905371409267 -13.619167477640396 0 0 1
596 9 3 0.1268 7.139345767162309 19.475940620214917 -10.769274437771221 0 -1 0
1030 16 2 0.0265 10.309638277987654 19.506560259608076 -11.90094342825839 0 0 1
749 12 5 -0.053 6.64323042178523 14.58973762302703 -13.186964341264941 0 0 0
1067 16 3 0.1268 9.055877610988034 17.881493852482123 -12.665241027432518 0 0 1
1031 16 2 -0.1268 9.634239167167628 18.28667516834683 -11.852448197610482 0 0 1
961 15 2 -0.1268 11.014840473792127 14.43057133124266 -10.841847740463095 0 0 1
800 12 3 0.1268 7.739648344493654 13.710622465366281 -11.046756393047271 0 0 0
799 12 3 0.1268 7.629582214022255 14.882367637227663 -8.680678561273083 0 0 0
761 12 2 0.0265 6.658331491660251 15.262090866331821 -11.948238996761164 0 0 0
762 12 2 -0.1268 5.9876347499945215 16.49198315632656 -11.722361971749184 0 0 0
763 12 2 -0.1268 5.953521400013511 17.11725663129684 -10.474054967614537 0 0 0
764 12 2 0 6.462632420284393 16.474570923043373 -9.374560658100801 0 0 0
765 12 2 -0.1268 7.138106788616202 15.289131803891951 -9.587365505470029 0 0 0
766 12 2 -0.1268 7.258832119635478 14.655339274749593 -10.841065191302661 0 0 0
1068 16 3 0.1268 9.10317054315985 16.635660602391273 -10.690708131487026 0 0 0
960 15 2 -0.1268 11.199666722059265 13.782047530365542 -9.624016543661426 0 0 0
1027 16 2 0.0265 10.245700018931085 18.133514392758087 -9.49545897904908 0 0 0
1028 16 2 -0.1268 10.919441316632462 19.38111370018564 -9.577907291336246 0 0 0
1032 16 2 -0.1268 9.683165714875607 17.591230995504255 -10.672916533640588 0 0 0
962 15 2 0.0265 10.448008993632019 13.810625521072694 -11.959885997864298 0 0 1
793 12 3 0.1268 7.541328350844072 17.209797489460946 -13.55717849230968 0 0 0
956 15 5 -0.053 10.236945352327881 14.453409589828425 -13.128820021448622 0 0 1
1021 16 5 -0.053 10.07530885162847 17.469823999451528 -8.30842885897135 0 0 0
755 12 2 0.0265 6.774553359556906 15.31599295914851 -14.388901127922992 0 0 0
767 12 1 0.3964 6.602633805503892 17.163363732870838 -7.976746881642029 0 0 0
750 12 4 -0.3964 6.435929536677222 18.402052959838286 -7.958805134772543 0 0 0
998 15 3 0.1268 11.483358773893745 15.413656721482681 -10.960382319011579 0 0 1
994 15 2 0.0265 10.37991747114063 13.801587308213598 -14.329165862216897 0 0 1
1062 16 2 0.0265 10.499189281471349 19.591897443401095 -14.242233607874326 0 0 1
1063 16 2 -0.1268 10.917091519101502 18.25514552615073 -14.379312730694656 0 0 1
756 12 2 -0.1268 7.188627026540628 16.634490509552677 -14.455373631657011 0 0 0
1001 15 3 0.1268 9.681534238243833 13.999720841178345 -7.83659648045044 0 0 0
535 8 3 0.1268 4.231585113131114 -3.2730616003291892 -0.31596084176407757 0 1 0
58 1 3 0.1268 -1.9485008307888882 -0.4252839814405882 -0.43982857206924386 0 0 0
285 5 2 0.0265 3.0940782483589526 0.2897556065796225 -7.278615035698423 0 0 0
20 1 2 0 -0.35346196326527424 -1.8330471859933684 -7.053167892946665 0 0 0
99 2 2 -0.1268 0.31706549198846234 2.453953052008705 -0.8631890197464251 0 0 0
286 5 2 -0.1268 2.640419067968282 1.5963196065915453 -7.03464989510921 0 0 0
328 5 3 0.1268 4.178145150703664 2.727715915955926 -0.9018960467504886 0 0 0
297 5 2 -0.1268 3.79378419563728 1.7208344023366626 -0.8320329495895535 0 0 0
21 1 2 -0.1268 -0.9623813927789724 -3.0608820469064466 -6.972902033456318 0 0 0
287 5 2 -0.1268 2.657784020133307 2.083875720997579 -5.722344440078006 0 0 0
290 5 2 -0.1268 3.4722737064524205 -0.48987337971726275 -6.159510626635889 0 0 0
322 5 3 0.1268 2.4302900377963725 3.0980094136855847 -5.605754849301565 0 0 0
288 5 2 0 3.0568898559518924 1.2957025671386795 -4.679880655874182 0 0 0
289 5 2 -0.1268 3.4371602305220605 -0.030123221430171654 -4.845246455390045 0 0 0
94 2 2 0.0265 -0.28991131941682724 3.0201094282519687 -1.9872308364135716 0 0 0
91 2 2 0.0265 -0.17732593961560905 3.1550758651428907 -4.356536614381277 0 0 0
90 2 2 -0.1268 -0.5700643734157103 2.5484862584970074 -5.568556914325633 0 0 0
89 2 2 -0.1268 -0.6093125417181182 3.2130432797813793 -6.802138904046373 0 0 0
71 2 5 -0.053 -0.2821398783617113 2.340587107848604 -3.1853765481169933 0 0 0
56 1 3 0.1268 0.5829612034941376 -0.004003086328085992 -5.810761713997859 0 0 0
55 1 3 0.1268 0.2022042108474449 -1.200216519676942 -3.7101723650004192 0 0 0
27 1 2 -0.1268 -1.392199700159992 -1.9360041946462991 -1.9391422927864799 0 0 0
26 1 2 0.0265 -0.6672789454409143 -3.0837432815683377 -2.1839690888661814 0 0 0
25 1 2 -0.1268 0.10895858004619186 -1.053454544247058 -5.902210128132435 0 0 0
24 1 2 -0.1268 -0.07136534554843532 -1.6869248447959873 -4.675322541883109 0 0 0
23 1 2 0.0265 -0.5471847107187904 -2.9974109779435816 -4.516719679353333 0 0 0
291 5 1 0.3964 3.257623877955883 1.9140893919036586 -3.320686004551588 0 0 0
292 5 2 0 3.3031067804979086 1.0915603725156355 -1.9809262544546886 0 0 0
293 5 2 -0.1268 2.731684476174814 -0.183305404013971 -1.9139325038990016 0 0 0
325 5 3 0.1268 2.211076871925549 -0.6468840045838555 -2.6947490296727334 0 0 0
274 5 4 -0.3964 3.2664717151885734 3.126884700869896 -3.2142089171704313 0 0 0
122 2 3 0.1268 -1.0193427665927557 1.5274546038131893 -5.534779857796275 0 0 0
324 5 3 0.1268 3.6874831380703768 -1.5827409111424116 -6.371579351004593 0 0 0
323 5 3 0.1268 3.7950689059824754 -0.725359958552402 -4.048269551052362 0 0 0
532 8 3 0.1268 1.9823984903959504 -3.3085823370884757 -5.6475205362997425 0 1 0
128 2 3 0.1268 0.8540291258692934 1.5102665571816614 -0.9859282154629607 0 0 0
28 1 2 -0.1268 -1.4036311228460865 -1.3471826727619964 -0.6725351928014387 0 0 0
294 5 2 -0.1268 2.7393104795162033 -0.8294792035922662 -0.6771753239131986 0 0 0
31 1 2 -0.1268 0.04487664320146978 -3.6571439213126204 -1.1024099625722048 0 0 0
57 1 3 0.1268 -2.084283669081464 -1.5400873552950278 -2.708925918278693 0 0 0
22 1 2 -0.1268 -0.981907957741148 -3.6510306109015316 -5.727421792420039 0 0 0
3 1 5 -0.053 -0.5614361409630766 -3.7402609581002633 -3.3585741789736545 0 0 0
326 5 3 0.1268 2.437952108187834 -1.8622008601482314 -0.5569778608347722 0 0 0
597 9 3 0.1268 5.726996862823498 -3.7091675792342436 -7.315538298577987 0 0 0
869 13 3 0.1268 11.44347156170954 -0.8320448135854042 -7.475954265703161 0 0 0
836 13 2 0 10.363307877188568 1.0175577078501599 -6.964220109742129 0 0 0
837 13 2 -0.1268 10.93193636504517 -0.24550877026105988 -6.720775784920921 0 0 0
633 10 2 -0.1268 6.452495696127391 2.977131346401757 -7.120976463107183 0 0 0
1076 16 3 0.1268 11.344725833013145 -3.521483724651852 -0.8478914193936866 0 1 0
564 9 2 0 6.7181693359758565 -1.8642334461518915 -6.6958287909969005 0 0 0
572 9 2 -0.1268 6.267535086653448 -1.0081020497560327 -0.4002961672620504 0 0 0
601 9 3 0.1268 5.391558395670886 -1.3922404597443538 -2.444835121195595 0 0 0
666 10 3 0.1268 5.979448998780139 1.2404994245979273 -5.822002079612378 0 0 0
565 9 2 -0.1268 6.20235943372116 -3.1350398867144214 -6.507077400595378 0 0 0
672 10 3 0.1268 7.727989658753582 1.1704516013656434 -1.3706957349110986 0 0 0
634 10 2 -0.1268 6.421689382515822 2.2749212485508146 -5.92008972801753 0 0 0
569 9 2 -0.1268 7.246896752242941 -1.185797996236007 -5.552005877492505 0 0 0
600 9 3 0.1268 7.497460916547201 -0.10385714102168953 -5.621901070510024 0 0 0
847 13 2 -0.1268 10.844742850329428 1.7002286070884756 -1.782739811054661 0 0 0
871 13 3 0.1268 9.48128511461371 2.110559977233171 -3.7444836986249275 0 0 0
638 10 2 0.0265 6.724480031977098 2.7776132860003724 -2.4214774401499657 0 0 0
635 10 2 0.0265 6.880587124098003 2.8372457521332635 -4.7198107816053 0 0 0
615 10 5 -0.053 6.728482033877228 2.0771772848440238 -3.606341838910028 0 0 0
599 9 3 0.1268 7.603546210802376 -1.1796781558848437 -3.3899519378868934 0 0 0
571 9 2 -0.1268 6.0415709343734925 -1.7259216349594229 -1.561038276954969 0 0 0
570 9 2 0.0265 6.700839256031626 -2.988616242273064 -1.7485611484651749 0 0 0
568 9 2 -0.1268 7.114901792079779 -1.6696486022739312 -4.245995678590328 0 0 0
567 9 2 0.0265 6.592717504243883 -3.0011734996264883 -4.072795672857588 0 0 0
819 13 5 -0.053 10.419731531818151 -0.3870796756865249 -3.0327804853212648 0 0 0
838 13 2 -0.1268 10.870728875258306 -0.6582602486366631 -5.37314012955976 0 0 0