LAMMPS data file via write_data, version 29 Aug 2024, timestep = 1000000, units = real

2176 atoms
5 atom types
2368 bonds
5 bond types
3776 angles
7 angle types
5632 dihedrals
10 dihedral types
1216 impropers
4 improper types

-2.1175313536991816 26.515711353701192 xlo xhi
-4.055438434930309 20.55543843492722 ylo yhi
-15.025009176649938 15.025009176649938 zlo zhi

Atom Type Labels

1 c_0
2 cp
3 hc
4 o_1
5 oc

Bond Type Labels

1 c_0-cp
2 c_0-o_1
3 cp-cp
4 cp-hc
5 cp-oc

Angle Type Labels

1 c_0-cp-cp
2 cp-c_0-cp
3 cp-c_0-o_1
4 cp-cp-cp
5 cp-cp-hc
6 cp-cp-oc
7 cp-oc-cp

Dihedral Type Labels

1 cp-c_0-cp-cp
2 o_1-c_0-cp-cp
3 c_0-cp-cp-cp
4 cp-cp-cp-cp
5 c_0-cp-cp-hc
6 cp-cp-cp-hc
7 hc-cp-cp-hc
8 cp-cp-cp-oc
9 hc-cp-cp-oc
10 cp-cp-oc-cp

Improper Type Labels

1 c_0-cp-cp-cp-nb==3
2 cp-c_0-cp-o_1-nb==3
3 cp-cp-cp-hc-nb==3
4 cp-cp-cp-oc-nb==3

Masses

1 12.01115
2 12.01115
3 1.00797
4 15.9994
5 15.9994

Pair Coeffs # lj/class2/coul/long

1 0.12 3.308
2 0.064 4.01
3 0.02 2.3
4 0.267 3.3
5 0.24 3.535

Bond Coeffs # morse

1 82.6961 2.1 1.489
2 190.966 2.2 1.216
3 150 1.9 1.417
4 98.2315 2.1 1.0982
5 85.5641 2.3 1.3768

Angle Coeffs # class2xe

1 108.4 43.9594 -8.3924 -9.3379
2 110.588 34.6214 -7.0939 -7.4032
3 119.3 65.1016 -17.9766 0
4 118.9 61.0226 -34.9931 0
5 117.94 35.1558 -12.4682 0
6 123.42 73.6781 -21.6787 0
7 109.5 60 0 0

BondBond Coeffs

1 116.348 0 1.489 1.417
2 82.6961 0 1.489 1.489
3 136.831 0 1.489 1.216
4 150 0.477094 1.417 1.417
5 124.116 0.0659451 1.417 1.0982
6 117.782 0.453635 1.417 1.3768
7 85.5641 0 1.3768 1.3768

BondAngle Coeffs

1 82.6961 150 0 0 1.489 1.417
2 82.6961 82.6961 0 0 1.489 1.489
3 82.6961 190.966 0 0 1.489 1.216
4 150 150 0.310219 0.310219 1.417 1.417
5 150 98.2315 0.25822 0.3511 1.417 1.0982
6 150 85.5641 0.441509 0.793248 1.417 1.3768
7 85.5641 85.5641 0 0 1.3768 1.3768

Dihedral Coeffs # class2xe

1 0 0 2.5 0 0 0
2 0 0 0.9063 0 0 0
3 0 0 4.6282 0 0 0
4 8.3667 0 1.1932 0 0 0
5 0 0 2.167 0 0 0
6 0 0 3.9661 0 0 0
7 0 0 1.8769 0 0 0
8 0 0 4.8498 0 0 0
9 0 0 1.7234 0 0 0
10 0 0 1.8 0 0 0

AngleAngleTorsion Coeffs

1 0 110.588 108.4
2 0 119.3 108.4
3 0 108.4 118.9
4 0 118.9 118.9
5 0 108.4 117.94
6 -4.8141 118.9 117.94
7 0.3598 117.94 117.94
8 -21.0247 118.9 123.42
9 4.2296 117.94 123.42
10 0 123.42 109.5

EndBondTorsion Coeffs

1 2.1 1.9 0 0 0 0 0 0 1.489 1.417
2 2.2 1.9 0 0 0 0 0 0 1.216 1.417
3 2.1 1.9 0 0 0 0 0 0 1.489 1.417
4 1.9 1.9 -0.1185 6.3204 0 -0.1185 6.3204 0 1.417 1.417
5 2.1 2.1 0 0 0 0 0 0 1.489 1.0982
6 1.9 2.1 0 -6.8958 0 0 -0.4669 0 1.417 1.0982
7 2.1 2.1 0 -0.689 0 0 -0.689 0 1.0982 1.0982
8 1.9 2.3 0 0.2655 0 0 4.8905 0 1.417 1.3768
9 2.1 2.3 0 -1.5867 0 0 4.2641 0 1.0982 1.3768
10 1.9 2.3 0 0 0 0 0 0 1.417 1.3768

MiddleBondTorsion Coeffs

1 2.1 0 0 0 1.489
2 2.1 0 0 0 1.489
3 1.9 0 0 0 1.417
4 1.9 27.5989 -2.312 0 1.417
5 1.9 0 0 0 1.417
6 1.9 0 -1.1521 0 1.417
7 1.9 0 4.8228 0 1.417
8 1.9 0 4.8255 0 1.417
9 1.9 0 5.5432 0 1.417
10 2.3 0 0 0 1.3768

BondBond13 Coeffs

1 116.348 0 1.489 1.417
2 170.483 0 1.216 1.417
3 116.348 0 1.489 1.417
4 150 0.420317 1.417 1.417
5 90.4638 0 1.489 1.0982
6 124.116 0.158982 1.417 1.0982
7 98.2315 0.0932321 1.0982 1.0982
8 117.782 0.0975929 1.417 1.3768
9 91.8978 0.105655 1.0982 1.3768
10 117.782 0 1.417 1.3768

AngleTorsion Coeffs

1 0 0 0 0 0 0 110.588 108.4
2 0 0 0 0 0 0 119.3 108.4
3 0 0 0 0 0 0 108.4 118.9
4 1.9767 1.0239 0 1.9767 1.0239 0 118.9 118.9
5 0 0 0 0 0 0 108.4 117.94
6 0 2.5014 0 0 2.7147 0 118.9 117.94
7 0 2.4501 0 0 2.4501 0 117.94 117.94
8 0 10.0155 0 0 1.7404 0 118.9 123.42
9 0 1.8729 0 0 2.5706 0 117.94 123.42
10 0 0 0 0 0 0 123.42 109.5

Improper Coeffs # class2

1 10 0
2 38.7949 0
3 4.8912 0
4 13.0421 0

AngleAngle Coeffs

1 0 0 0 108.4 118.9 108.4
2 0 0 0 110.588 119.3 119.3
3 0 0 0 118.9 117.94 117.94
4 0 0 0 118.9 123.42 123.42

Atoms # full

13 1 2 0.0265 -0.22954337522648682 -3.315367873265881 -13.716231296533458 0 0 0
14 1 2 -0.1268 -0.8023604550067172 -2.01823273402125 -13.584928179100732 0 0 0
15 1 2 -0.1268 -0.9975573920648155 -1.4606962991050008 -12.349703592995322 0 0 0
16 1 2 0 -0.5149574048467795 -2.0896942126719473 -11.226348904775836 0 0 0
17 1 2 -0.1268 0.13318571566624327 -3.370761531720019 -11.302669170351583 0 0 0
120 2 3 0.1268 0.2222804577957782 1.1739890316442967 -12.228377071828369 0 0 0
81 2 2 0.0265 -0.4020033446124749 2.949363280223328 -13.33302878649645 0 0 0
119 2 3 0.1268 0.48483820124324195 2.330178021414114 -10.143877887756549 0 0 0
86 2 2 -0.1268 0.052757141351783776 2.2605874241341084 -12.179319628213493 0 0 0
85 2 2 -0.1268 0.05883524001519902 2.9365622113488 -10.963417763680004 0 0 0
273 5 5 -0.053 2.984858371988844 -0.7257762044603973 -10.019731100747725 0 0 0
279 5 2 0.0265 3.0436490387119024 -0.049228312295597654 -11.268284413615916 0 0 0
280 5 2 -0.1268 3.6660021819500166 1.187785372232944 -11.45858008874414 0 0 0
284 5 2 -0.1268 2.4805720316876645 -0.7005363985580968 -12.345984815894273 0 0 0
317 5 3 0.1268 4.103700890005105 1.756218298584149 -10.607745942868975 0 0 0
320 5 3 0.1268 1.9848653230159217 -1.6562036270429372 -12.145979153315533 0 0 0
321 5 3 0.1268 2.337261245896708 1.8441159521274342 -9.576352906669019 0 0 0
19 1 1 0.3964 -0.6219502820776663 -1.314189968277454 -9.92410535764418 0 0 0
281 5 2 -0.1268 3.548212931912756 1.7927320367580428 -12.747494098203616 0 0 1
283 5 2 -0.1268 2.5743532180134547 -0.2124590142801437 -13.600872272246704 0 0 1
282 5 2 0.0265 3.035504853561494 1.1187065073714475 -13.852829300280794 0 0 1
2 1 4 -0.3964 -0.7142242004916115 -0.10873040891002939 -10.037328583477233 0 0 0
121 2 3 0.1268 -1.2307505824415124 2.495999312155857 -9.009152980706153 0 0 0
285 5 2 0.0265 3.039916059778812 -0.042056573428320476 -8.819831994487899 0 0 0
286 5 2 -0.1268 2.630526188425339 1.289736242438206 -8.676545987202212 0 0 0
20 1 2 0 -0.5454000244893287 -1.9041186336445453 -8.507810959364082 0 0 0
522 8 3 0.1268 3.8271792139987353 -3.110696606590396 -13.065577393253427 0 1 1
319 5 3 0.1268 2.011658753558513 -0.8012089554950856 -14.396668134612922 0 0 1
50 1 3 0.1268 -1.4716741126515442 -0.4440639247012106 -12.310111885629308 0 0 0
318 5 3 0.1268 3.8800111208135766 2.8393477905827122 -12.936718612267091 0 0 1
21 1 2 -0.1268 -0.8954451111404111 -3.231141964651113 -8.432278726446455 0 0 0
49 1 3 0.1268 -1.19168313624326 -1.5768767778260795 -14.545918964651833 0 0 0
89 2 2 -0.1268 -0.8229384919984093 3.1032235976098947 -8.158007526262912 0 0 0
69 2 5 -0.053 -0.4189197359590935 2.241025628726155 -14.580791091331779 0 0 0
53 1 3 0.1268 -1.0802662035209938 -3.8242033587537145 -9.351684232678423 0 0 0
18 1 2 -0.1268 0.21477282561892652 -3.9789019699381316 -12.57156195300903 0 0 0
51 1 3 0.1268 0.5484095331706706 -3.731887977192694 -10.364185362707278 0 0 0
1 1 5 -0.053 -0.14759063031723008 -3.945418732654975 -14.972105718261732 0 0 0
324 5 3 0.1268 3.6562000243148383 -1.8167804919977333 -7.753958758398334 0 0 0
290 5 2 -0.1268 3.5225000951633962 -0.7205507007725762 -7.653326981254915 0 0 0
665 10 3 0.1268 5.773763497205121 2.4537165456044825 -9.010806923822361 0 0 0
594 9 3 0.1268 5.853284355156144 -0.05670284455792585 -12.593835049805918 0 0 0
558 9 2 -0.1268 6.32113835782247 -1.6432317718829959 -13.683909439253581 0 0 0
559 9 2 -0.1268 6.306358201677483 -1.0388319927923462 -12.459181214225188 0 0 0
560 9 2 0 6.685331333499011 -1.7492986510823978 -11.337986825322583 0 0 0
664 10 3 0.1268 7.58457680377723 1.4016346963004382 -12.513636890383792 0 0 0
663 10 3 0.1268 7.578615686377619 2.450918291060421 -10.369018298722164 0 0 0
630 10 2 -0.1268 7.1287374844787585 2.3884630335686756 -12.474371052193616 0 0 0
629 10 2 -0.1268 7.204616688903577 3.0038702642956965 -11.247123196690506 0 0 0
817 13 5 -0.053 10.255938147619453 -0.8822626487491774 -9.956415236861336 0 0 0
823 13 2 0.0265 10.292424652477301 -0.23132681356643703 -11.174676314880369 0 0 0
824 13 2 -0.1268 11.11451374502996 0.8531746616431501 -11.486521746096873 0 0 0
828 13 2 -0.1268 9.596528873275918 -0.7434984523952055 -12.294267582351807 0 0 0
829 13 2 0.0265 10.410806411838264 -0.12167334130491181 -8.802958692329103 0 0 0
830 13 2 -0.1268 10.16763829478759 1.3019781732580995 -8.772830898611245 0 0 0
864 13 3 0.1268 8.950842379581017 -1.6275445852681556 -12.061578505503247 0 0 0
865 13 3 0.1268 9.714594057067329 1.7491813359013655 -9.696465896681456 0 0 0
546 9 4 -0.3964 6.720363336389445 0.2613856148044187 -10.110354070609517 0 0 0
563 9 1 0.3964 6.674246129921887 -0.9524704322104163 -10.025518846141726 0 0 0
825 13 2 -0.1268 11.114071766841983 1.4043873938082063 -12.752428952967724 0 0 1
557 9 2 0.0265 6.587634879062001 -3.0055024644560318 -13.749455320755143 0 0 0
561 9 2 -0.1268 6.979022933674445 -3.127032419188609 -11.355767032782417 0 0 0
625 10 2 0.0265 6.741804249005272 2.9984992697012407 -13.68348619950411 0 0 0
827 13 2 -0.1268 9.553697452185178 -0.14900002360287212 -13.549349565888445 0 0 1
826 13 2 0.0265 10.307172800358071 0.976899322106628 -13.806725552176708 0 0 1
633 10 2 -0.1268 6.406941254308284 2.946570553031508 -8.298843819485963 0 0 0
564 9 2 0 6.703098070816074 -1.631545225046167 -8.733325469855494 0 0 0
565 9 2 -0.1268 6.320832219205332 -2.9920326617285884 -8.567971895758351 0 0 0
862 13 3 0.1268 11.738321763899153 2.310216236913294 -12.981872118545983 0 0 1
863 13 3 0.1268 8.780086813450028 -0.4129539841689782 -14.267834065218763 0 0 1
1066 16 3 0.1268 11.39061167824439 -3.206099809559148 -12.665111674717792 0 1 1
593 9 3 0.1268 5.9793294466636535 -1.0515806612489418 -14.535315060376465 0 0 0
595 9 3 0.1268 7.224916566166456 -3.799149264661998 -10.48635896714358 0 0 0
597 9 3 0.1268 5.882098134724934 -3.5675419019145487 -9.425952852822565 0 0 0
861 13 3 0.1268 11.853071775686509 1.3083277750066546 -10.811985774352792 0 0 0
562 9 2 -0.1268 7.002214824880301 -3.7466283589122544 -12.630307573137888 0 0 0
600 9 3 0.1268 7.239856614831936 0.1432463566977944 -7.777304813188319 0 0 0
569 9 2 -0.1268 7.009017790011173 -0.9044044452153059 -7.5755856334625875 0 0 0
613 10 5 -0.053 6.709229660350889 2.251243594675718 -14.809565909066308 0 0 0
1024 16 5 -0.053 10.136328499405275 -4.00022099877431 -14.739962081627306 0 1 1
868 13 3 0.1268 11.085022735158548 -1.872061696267929 -7.571531695028277 0 0 0
834 13 2 -0.1268 10.977805524687968 -0.7582806395917872 -7.66866893208005 0 0 0
831 13 2 -0.1268 10.292751208004438 1.94553087388943 -7.549882058431137 0 0 0
545 9 5 -0.053 6.55638936540881 -3.7696431881127186 -14.925815263356931 0 0 0
388 6 3 0.1268 2.3592040946156283 4.310990563115055 -11.865155332785674 0 0 0
82 2 2 -0.1268 -0.8648502603700197 4.247186359397821 -13.29389173523068 0 0 0
84 2 2 0 -0.3036081578236103 4.275813221406855 -10.908904457477798 0 0 0
88 2 2 0 -0.27375077279012694 4.386679837784802 -8.26945613149133 0 0 0
185 3 3 0.1268 -1.3041586114072492 11.061361367562462 -14.493309696603516 0 0 0
117 2 3 0.1268 -1.2432964543080625 4.893356126015716 -14.10403122858204 0 0 0
189 3 3 0.1268 -1.3047654320863011 8.693821188273098 -9.323489175045605 0 0 0
83 2 2 -0.1268 -0.7120462007660577 4.8764809883229 -12.118637194532305 0 0 0
341 6 5 -0.053 3.4533263662488203 5.329209742080732 -9.704005865854734 0 0 0
347 6 2 0.0265 3.3782331711904776 5.99641976310477 -10.8988929509121 0 0 0
352 6 2 -0.1268 2.7477291550081935 5.346949976766213 -11.983078460288336 0 0 0
188 3 3 0.1268 0.5812344970843055 7.469008079554914 -12.7547643483284 0 0 0
348 6 2 -0.1268 3.8795966552246295 7.262756536476893 -11.133717503444105 0 0 0
389 6 3 0.1268 2.387720344135749 7.9126535117008 -9.322685163120404 0 0 0
187 3 3 0.1268 0.3661164435305939 8.543415691338886 -10.434157339867348 0 0 0
154 3 2 -0.1268 0.05293206710765963 8.392169170684877 -12.603747041639732 0 0 0
153 3 2 -0.1268 0.09588009106426165 9.067094647225213 -11.36111972704239 0 0 0
152 3 2 0 -0.4712500680464369 10.373746079684484 -11.298248462502682 0 0 0
151 3 2 -0.1268 -0.9519279670865943 10.992216163441695 -12.4471617149705 0 0 0
409 7 5 -0.053 3.357576141055528 11.446111160248973 -9.857568062446543 0 0 0
155 3 1 0.3964 -0.47923500979752043 11.157483851599173 -9.98598138675898 0 0 0
349 6 2 -0.1268 3.751261317043017 7.799726053124475 -12.41402168429278 0 0 1
87 2 1 0.3964 -0.29565218943919946 5.090055454131525 -9.613468535621362 0 0 0
70 2 4 -0.3964 -0.4206406723841212 6.305396597014104 -9.64771122484024 0 0 0
456 7 3 0.1268 2.2870890070910894 10.586152793184043 -12.079012407993677 0 0 0
149 3 2 0.0265 -0.46598909756632767 9.068067508526354 -13.773880501892853 0 0 0
150 3 2 -0.1268 -0.9810709079663003 10.35157802604952 -13.67368809817329 0 0 0
350 6 2 0.0265 3.2922224944652507 7.128707810156937 -13.50906446626577 0 0 1
351 6 2 -0.1268 2.827230793679191 5.8669569547958265 -13.28505142762878 0 0 1
156 3 2 0 -0.34109010968485043 10.534645458335703 -8.627459771379762 0 0 0
353 6 2 0.0265 3.323949824251038 6.095392733228566 -8.51596577485095 0 0 0
354 6 2 -0.1268 2.8214690480117346 7.361148251814598 -8.442879579389983 0 0 0
157 3 2 -0.1268 -0.9275156937872897 9.256354390251799 -8.422598986510234 0 0 0
420 7 2 -0.1268 2.725866432375714 11.574828290014779 -12.178034225655214 0 0 0
387 6 3 0.1268 2.3274043415261163 5.276082406706008 -14.07876213702142 0 0 1
385 6 3 0.1268 4.285236169528399 7.894158494441275 -10.316131995733937 0 0 0
118 2 3 0.1268 -0.9722936297249454 5.940841510137174 -12.058231211363 0 0 0
386 6 3 0.1268 3.888624090440474 8.912623784024541 -12.613623185592672 0 0 1
344 6 5 -0.053 3.355504699055226 7.7409699313622315 -14.698173370348465 0 0 1
455 7 3 0.1268 2.3252813148099136 11.531533978916304 -14.273964069972012 0 0 1
137 3 5 -0.053 -0.6191057757262546 8.36515896534077 -14.916322890190601 0 0 0
186 3 3 0.1268 -1.3366143319005426 12.013197692463539 -12.26647573011071 0 0 0
421 7 2 0.0265 3.3097811339178707 12.087915060433843 -8.663551626762576 0 0 0
415 7 2 0.0265 3.379263404322609 12.15875291195405 -11.03409480622203 0 0 0
419 7 2 -0.1268 2.769535259970745 12.062133501074594 -13.45500747326042 0 0 1
161 3 2 -0.1268 0.25321009221855295 11.240646323129058 -7.547423644667039 0 0 0
192 3 3 0.1268 0.829838686393455 12.205832218879795 -7.681087330612982 0 0 0
681 11 5 -0.053 6.782789766565626 8.029010408585624 -14.66686280819638 0 0 0
632 10 2 0 6.992445605760981 4.23742646620042 -8.469443527866263 0 0 0
932 14 3 0.1268 9.640289932471644 4.451259978147879 -12.411987034042362 0 0 0
628 10 2 0 6.732699440706879 4.300327023643558 -11.059794514197304 0 0 0
626 10 2 -0.1268 6.265932085275475 4.303424280738296 -13.482873942315301 0 0 0
661 10 3 0.1268 5.890833045682907 4.850502915029763 -14.356993476488855 0 0 0
931 14 3 0.1268 9.652478793896519 5.436590312507329 -14.727654154703577 0 0 1
662 10 3 0.1268 6.0552558308815225 6.055955760992845 -12.066819101466004 0 0 0
730 11 3 0.1268 6.058809787239653 11.630549171031113 -12.026140577122925 0 0 0
733 11 3 0.1268 5.991500762840257 8.28963154627728 -9.064320677814898 0 0 0
1000 15 3 0.1268 9.502630360648713 10.442313739614447 -12.37767701273634 0 0 0
627 10 2 -0.1268 6.3180983787926195 4.965827518503479 -12.224449902415543 0 0 0
631 10 1 0.3964 6.814411624576822 5.007679631686656 -9.725166682174248 0 0 0
885 14 5 -0.053 10.726567177057722 5.516724561439661 -10.223479825466239 0 0 0
891 14 2 0.0265 10.674551659736998 6.1205477234196515 -11.510677991284386 0 0 0
896 14 2 -0.1268 10.063604891864754 5.4720886789029635 -12.56575432561743 0 0 0
897 14 2 0.0265 10.761943411854801 6.246286475121826 -9.001153813862942 0 0 0
732 11 3 0.1268 7.756164260855062 7.112885050336706 -12.519640928171 0 0 0
731 11 3 0.1268 7.720256521063339 8.008879554871005 -10.313761897590766 0 0 0
698 11 2 -0.1268 7.474433680416933 8.154385778906606 -12.372975102797488 0 0 0
697 11 2 -0.1268 7.465089514061546 8.717532105429946 -11.116959647765281 0 0 0
696 11 2 0 6.937260547834919 10.04501472825169 -11.00513827857518 0 0 0
695 11 2 -0.1268 6.465655620654827 10.63941059358313 -12.140002478075804 0 0 0
895 14 2 -0.1268 10.073622170281578 6.022027562414573 -13.893667572473925 0 0 1
614 10 4 -0.3964 6.72314355102778 6.217217459753606 -9.679804659004155 0 0 0
699 11 1 0.3964 6.952141634588429 10.816858592092393 -9.753683057599314 0 0 0
893 14 2 -0.1268 11.181578003388063 7.938134293134995 -12.943623162885757 0 0 1
894 14 2 0.0265 10.639842631320676 7.310207912047593 -14.01672922876915 0 0 1
898 14 2 -0.1268 10.205230667757542 7.5090143898200825 -8.89721431043213 0 0 0
964 15 2 -0.1268 9.922018056555016 11.39964348959994 -12.560140314039334 0 0 0
953 15 5 -0.053 10.440068877284995 11.643131663343793 -10.21086381522824 0 0 0
933 14 3 0.1268 9.824143484413057 8.044822598103913 -9.766506420244275 0 0 0
892 14 2 -0.1268 11.315572749924032 7.3387250267538615 -11.710268539883474 0 0 0
700 11 2 0 6.833843434042713 10.218976287785704 -8.360077014353777 0 0 0
693 11 2 0.0265 6.920138744581392 8.775695301607305 -13.547364311393878 0 0 0
694 11 2 -0.1268 6.48170231265685 10.123650829896611 -13.382590057063213 0 0 0
701 11 2 -0.1268 6.197166658691604 8.929599902510759 -8.198630620943277 0 0 0
999 15 3 0.1268 9.406540964211766 11.259355950924922 -14.61384307548921 0 0 1
729 11 3 0.1268 6.038320928624115 10.627725217294243 -14.233656320429782 0 0 0
1004 15 3 0.1268 11.392964522505817 10.77667563606672 -7.998508263007476 0 0 0
682 11 4 -0.3964 7.116529340132635 12.0377045600757 -9.906696613992356 0 0 0
929 14 3 0.1268 11.806598184658975 7.922944437862416 -10.88919601520632 0 0 0
930 14 3 0.1268 11.710510801094939 8.892470888692685 -13.054432368749739 0 0 1
963 15 2 -0.1268 9.8633829902316 11.931983374685526 -13.864670669532924 0 0 1
936 14 3 0.1268 11.415858543180727 4.534393052492449 -7.93151525379739 0 0 0
902 14 2 -0.1268 11.123884228754632 5.574190460959237 -7.836987360849036 0 0 0
970 15 2 -0.1268 10.895549052607992 11.741335937557544 -7.8718679591832945 0 0 0
668 10 3 0.1268 8.259844938851451 5.718518461083811 -7.5242920026336835 0 0 0
899 14 2 -0.1268 10.1875682589236 8.177153803750214 -7.698919143706517 0 0 0
934 14 3 0.1268 9.84650537122516 9.163934603765632 -7.685103798786294 0 0 0
959 15 2 0.0265 10.253161659783448 12.24331110994352 -11.513332208072722 0 0 0
138 3 4 -0.3964 -0.5032891810753559 12.376405516138075 -10.016736636442166 0 0 0
521 8 3 0.1268 4.123605457752992 20.54872162861298 -10.834399184077725 0 0 0
485 8 2 -0.1268 3.425393104153857 20.472339496217128 -12.938720606536958 0 0 1
525 8 3 0.1268 2.381731391202802 20.38111583553982 -9.672683170931027 0 0 0
253 4 3 0.1268 -1.4339212679620812 16.876486774231676 -14.115296370845767 0 0 0
52 1 3 0.1268 0.47832623044664935 19.593355970765078 -12.722382019178422 0 -1 0
484 8 2 -0.1268 3.6097871528578427 19.94925475643551 -11.641809192683969 0 0 0
490 8 2 -0.1268 2.699459305706122 19.8530227389258 -8.751532185422471 0 0 0
217 4 2 0.0265 -0.2258843197482876 15.210178275834181 -13.50717902564373 0 0 0
488 8 2 -0.1268 2.654812889740076 17.862249642586328 -12.397990107799872 0 0 0
416 7 2 -0.1268 3.9093585864924156 13.439503107318398 -11.2147728353563 0 0 0
422 7 2 -0.1268 2.7772577959152933 13.379946867846417 -8.525979182162864 0 0 0
457 7 3 0.1268 2.3487938161201525 13.899511456756471 -9.391697698875738 0 0 0
256 4 3 0.1268 0.9954523103540658 13.770302921838155 -12.583090149077826 0 0 0
255 4 3 0.1268 1.092079190065236 14.74587572330013 -10.318536832160273 0 0 0
218 4 2 -0.1268 -0.7832291704920953 16.50183934555389 -13.337326594280936 0 0 0
219 4 2 -0.1268 -0.6405802707012425 17.160629635606806 -12.111570040638808 0 0 0
220 4 2 0 0.032979094807839004 16.57238522729371 -11.031698469013236 0 0 0
221 4 2 -0.1268 0.4956400051991747 15.251220574916136 -11.117302974404723 0 0 0
222 4 2 -0.1268 0.45119841674648464 14.665274168629253 -12.376872561342097 0 0 0
477 8 5 -0.053 3.394115009551377 17.94765153236886 -10.149627772666253 0 0 0
483 8 2 0.0265 3.265013251466824 18.613615985714876 -11.36347161599575 0 0 0
489 8 2 0.0265 3.342708134486993 18.60278432850459 -8.93505654522037 0 0 0
223 4 1 0.3964 -0.0878059569796199 17.394257643113637 -9.686919880277962 0 0 0
206 4 4 -0.3964 -0.12840868469593136 18.615875953734022 -9.688125494253129 0 0 0
524 8 3 0.1268 2.382273739063386 16.804077937714172 -12.31885044478201 0 0 0
417 7 2 -0.1268 3.9645086162139265 14.023885322643906 -12.483457213145595 0 0 1
486 8 2 0.0265 3.0773180019144606 19.667963199686525 -13.99664124728263 0 0 1
487 8 2 -0.1268 2.7210488476969212 18.354698613539995 -13.714995116752725 0 0 1
418 7 2 0.0265 3.4517747645930887 13.323183381421256 -13.621936855499278 0 0 1
224 4 2 0 -0.03120913588710783 16.595876657206762 -8.410641595647077 0 0 0
257 4 3 0.1268 -1.1819695708895408 14.840830061985582 -9.236949675463503 0 0 0
254 4 3 0.1268 -0.965948985745053 18.233308854622088 -11.908303859359489 0 0 0
225 4 2 -0.1268 -0.6785837687059595 15.31781153803881 -8.389960738754482 0 0 0
523 8 3 0.1268 2.2590153864209146 17.73206896573945 -14.530535944043718 0 0 1
453 7 3 0.1268 4.305929678376682 13.99352879959703 -10.391616651235507 0 0 0
454 7 3 0.1268 4.542082365008959 14.925821229823867 -12.54251484215788 0 0 1
494 8 2 -0.1268 3.894005950869924 17.947106876430713 -7.828297346993033 0 0 0
528 8 3 0.1268 4.221334516696291 16.882428200784144 -7.961027233082532 0 0 0
412 7 5 -0.053 3.6338737118316393 14.015676869346311 -14.7897804274091 0 0 1
205 4 5 -0.053 -0.37837059013333785 14.454510744285216 -14.644329347418653 0 0 0
965 15 2 0.0265 10.407016274174568 12.356236332726716 -9.022784902036534 0 0 0
1069 16 3 0.1268 9.56130225107645 20.47297029180159 -9.284448526319562 0 0 0
1065 16 3 0.1268 11.819664842369772 20.204579063560434 -10.509938828301687 0 0 0
1029 16 2 -0.1268 10.936332065024262 20.39282919975032 -12.48246478980947 0 0 1
793 12 3 0.1268 5.659467752240453 17.502144514108753 -11.118190862197785 0 0 0
794 12 3 0.1268 5.468025852149326 18.440654098815997 -13.38292450390239 0 0 1
997 15 3 0.1268 11.286822342072428 14.027189614805831 -11.022918459643602 0 0 0
596 9 3 0.1268 7.310530313660831 19.803253396320542 -12.572201434358528 0 -1 0
961 15 2 -0.1268 10.640582837631115 14.056387361943006 -13.104179224446831 0 0 1
960 15 2 -0.1268 10.721843554478959 13.526068363890257 -11.837148200995594 0 0 0
966 15 2 -0.1268 9.816777604120324 13.629991007332155 -8.95563418715606 0 0 0
796 12 3 0.1268 8.112459918834658 14.32595704739197 -12.867169868214368 0 0 0
757 12 2 -0.1268 5.980604729213457 17.533330886318595 -13.216313281557502 0 0 1
1031 16 2 -0.1268 9.593369817511125 18.591389432786958 -13.308166172645773 0 0 1
797 12 3 0.1268 7.581464749761762 17.458248318728113 -9.993088746661108 0 0 0
749 12 5 -0.053 6.72991268246626 14.984121307433789 -10.719809516844004 0 0 0
755 12 2 0.0265 6.768236664370621 15.725973293405744 -11.851169947455613 0 0 0
1001 15 3 0.1268 9.345377232048282 14.017890282796088 -9.867740819077088 0 0 0
1021 16 5 -0.053 10.442657214039963 17.84859003871802 -9.824539520983945 0 0 0
1027 16 2 0.0265 10.477444879196735 18.53955886005601 -11.009819778252744 0 0 0
1028 16 2 -0.1268 11.102945957250116 19.773023637216426 -11.224788651605266 0 0 0
1033 16 2 0.0265 10.41221995915328 18.52129774542146 -8.64411059176948 0 0 0
1034 16 2 -0.1268 9.986417328970248 19.859935179882616 -8.477510842647275 0 0 0
756 12 2 -0.1268 6.065468740963055 16.941556663954653 -11.97235041380153 0 0 0
1032 16 2 -0.1268 9.73997029795395 17.964501302974792 -12.07084543267511 0 0 0
1068 16 3 0.1268 9.103140208252622 17.119353939501625 -11.777337243862373 0 0 0
760 12 2 -0.1268 7.478365702395516 15.24358199274609 -12.941676356931927 0 0 0
759 12 2 -0.1268 7.441324871711885 15.89548645978072 -14.187330412086764 0 0 1
1030 16 2 0.0265 10.259967332945827 19.815501827613154 -13.578576308959597 0 0 1
962 15 2 0.0265 10.194269783100564 13.275977076826898 -14.162465681714897 0 0 1
758 12 2 0.0265 6.6723725288213025 17.04653965675304 -14.330307651529475 0 0 1
761 12 2 0.0265 6.764070535250282 15.515856121037938 -9.450621503185353 0 0 0
762 12 2 -0.1268 7.189878948043807 16.879357582650666 -9.17761125998331 0 0 0
998 15 3 0.1268 11.008587434205626 15.07809587307306 -13.35250264582036 0 0 1
1067 16 3 0.1268 8.967770770707968 18.01707336589561 -13.96247277497832 0 0 1
800 12 3 0.1268 6.112348855271897 13.683079503853236 -8.491267463270523 0 0 0
766 12 2 -0.1268 6.2694484478771955 14.738959661203577 -8.324711391719566 0 0 0
1072 16 3 0.1268 11.090764043665828 16.767347210048072 -7.560540198878941 0 0 0
763 12 2 -0.1268 7.210526852757246 17.371023865830487 -7.853742344959601 0 0 0
1002 15 3 0.1268 9.308954896844142 15.22936710852981 -7.648045558117096 0 0 0
967 15 2 -0.1268 9.836415624136192 14.287737803687225 -7.7367016393118595 0 0 0
798 12 3 0.1268 7.732578061031168 18.39776721356416 -7.693787459009855 0 0 0
58 1 3 0.1268 -1.3827225795282643 -0.5435862393259514 -1.8960156534694796 0 0 0
127 2 3 0.1268 0.671402313048135 2.3747775730961003 -0.2643150856576941 0 0 0
56 1 3 0.1268 0.10706032874280247 -0.14974376397265043 -7.443006018819852 0 0 0
526 8 3 0.1268 2.3001800016712934 -3.208954375219123 -7.238275672828007 0 1 0
287 5 2 -0.1268 2.618375319681112 1.8960843092419344 -7.389427315241186 0 0 0
57 1 3 0.1268 -1.2249003613188894 -1.2990857886663347 -4.0931656500143365 0 0 0
25 1 2 -0.1268 -0.1577706880567027 -1.2317639475584068 -7.381111669331792 0 0 0
322 5 3 0.1268 2.25463555924226 2.9163162405241403 -7.434638018997334 0 0 0
122 2 3 0.1268 -1.4747238495495059 1.466006433567455 -6.685042519738834 0 0 0
90 2 2 -0.1268 -0.884959487088604 2.429306519811905 -6.9247554654859815 0 0 0
295 5 2 0.0265 3.0410695429116164 -0.15549812928620454 -1.110635705426283 0 0 0
296 5 2 -0.1268 3.7048718774510148 1.1066595567951065 -1.304520242767783 0 0 0
288 5 2 0 3.019006266715092 1.1662779564683001 -6.274872060499629 0 0 0
289 5 2 -0.1268 3.4500488263625684 -0.11808905336090092 -6.426934109152169 0 0 0
28 1 2 -0.1268 -0.7923394461591431 -1.500497180960505 -2.066796011606005 0 0 0
94 2 2 0.0265 -0.4948942378350085 3.0717550507473073 -3.3727958531375766 0 0 0
91 2 2 0.0265 -0.37267196043357553 3.1357234522984694 -5.792916513571775 0 0 0
71 2 5 -0.053 -0.4327488540092912 2.491516899605677 -4.583917351981876 0 0 0
55 1 3 0.1268 0.3125264097519098 -1.2682310905171632 -5.301954521655903 0 0 0
27 1 2 -0.1268 -0.7521066047242582 -1.9752056956397088 -3.332761882732358 0 0 0
26 1 2 0.0265 -0.3351003721353394 -3.2956594820525664 -3.57609561112851 0 0 0
24 1 2 -0.1268 -0.09523712697406372 -1.8498745213581032 -6.13523488831021 0 0 0
23 1 2 0.0265 -0.525626326649784 -3.1940468837999036 -6.025556206310114 0 0 0
274 5 4 -0.3964 3.1534195906643463 3.1185786400646727 -4.870350159532546 0 0 0
291 5 1 0.3964 3.1208015098227593 1.897308031702722 -4.946947615163943 0 0 0
292 5 2 0 3.1017398352790213 1.149774190947448 -3.6169328140562396 0 0 0
293 5 2 -0.1268 2.5427490985188976 -0.17042961001960544 -3.480992636100517 0 0 0
294 5 2 -0.1268 2.507894208125099 -0.8078233074187047 -2.252579865356523 0 0 0
297 5 2 -0.1268 3.5931980552163454 1.8231600315876264 -2.5204093552852207 0 0 0
325 5 3 0.1268 2.2856000360224504 -0.8419060091435959 -4.275435887673215 0 0 0
326 5 3 0.1268 2.0385611009003224 -1.8058038275899495 -2.135681896478175 0 0 0
328 5 3 0.1268 4.065429000486938 2.8044512106449204 -2.689611394622844 0 0 0
128 2 3 0.1268 0.36113530128146465 1.3496050920361933 -2.6126987845884155 0 0 0
99 2 2 -0.1268 -0.0458135149141814 2.3176242877250717 -2.293003902567767 0 0 0
478 8 4 -0.3964 3.1487795396215494 -2.933762322225479 -4.96524923868567 0 1 0
323 5 3 0.1268 3.6967021565367624 -0.7250231740543045 -5.5625405668363985 0 0 0
30 1 2 -0.1268 0.18863462972023548 -3.5412247479358667 -1.1848894142831767 0 0 0
29 1 2 0.0265 -0.3013932577979648 -2.241415259298226 -1.0138358760585522 0 0 0
532 8 3 0.1268 4.186351343029314 -3.1558178623339592 -2.735761673372055 0 1 0
98 2 2 -0.1268 0.09463242422146756 2.901192797766752 -1.0595681644470023 0 0 0
22 1 2 -0.1268 -0.9606788905346917 -3.841138413150467 -7.213576978717837 0 0 0
3 1 5 -0.053 -0.409658979070022 -3.905030858280091 -4.815163525717875 0 0 0
327 5 3 0.1268 4.077766848961772 1.6863567737390879 -0.4494218768076621 0 0 0
819 13 5 -0.053 10.302629271748103 -0.535847686121699 -0.032285747491910044 0 0 0
603 9 3 0.1268 8.196254934451133 -3.4361661490304334 -0.5817724478624431 0 0 0
871 13 3 0.1268 11.098221887467025 2.043325471562933 -0.3705571495541591 0 0 0
566 9 2 -0.1268 6.411877360167205 -3.5221322642071424 -7.295621373878108 0 0 0
1070 16 3 0.1268 9.63182746770687 -3.1026922562342474 -7.109430167152083 0 1 0
671 10 3 0.1268 7.483008369540945 2.2603021251144453 -0.3529361508281408 0 0 0
866 13 3 0.1268 10.024331858226526 2.958063222978013 -7.429697928657285 0 0 0
666 10 3 0.1268 5.8160137773443585 1.4029882498075663 -7.033013174963352 0 0 0
634 10 2 -0.1268 6.423017058331665 2.3109117469390172 -7.05818441594704 0 0 0
602 9 3 0.1268 5.552506531607847 -0.2040435927782358 -2.0029303909249077 0 0 0
1076 16 3 0.1268 11.468901312372699 -3.2010854757939855 -2.4745056179244553 0 1 0
601 9 3 0.1268 5.4790963162185795 -1.3067407751279272 -4.224245863830152 0 0 0
867 13 3 0.1268 11.591054240471482 -0.39582205569584383 -5.596900225211652 0 0 0
839 13 2 0.0265 10.33635416347505 0.14736235132558484 -1.2351674141214115 0 0 0
833 13 2 -0.1268 11.078105765341428 -0.022515537997453983 -6.480741821330131 0 0 0
832 13 2 0 10.749140977209889 1.2892710191519452 -6.418819840438498 0 0 0
872 13 3 0.1268 11.263602737774738 3.169218988550302 -2.622323969397277 0 0 0
643 10 2 -0.1268 7.286040558806052 2.3030477858576637 -2.37961116547571 0 0 0
638 10 2 0.0265 6.957140765660293 2.9821010466578075 -3.554820323038376 0 0 0
635 10 2 0.0265 7.071013448523985 2.8817781039416266 -5.975897312094041 0 0 0
615 10 5 -0.053 6.999952175103807 2.2463695973925795 -4.71588397966441 0 0 0
599 9 3 0.1268 7.32157703319155 -0.7646691879540022 -5.440626031940427 0 0 0
571 9 2 -0.1268 6.034382740582071 -1.75973017674665 -3.434411697073358 0 0 0
570 9 2 0.0265 6.798561855919461 -2.867428990359885 -3.7034094161467017 0 0 0
568 9 2 -0.1268 7.01516918855272 -1.4034536552964818 -6.318292029085816 0 0 0