LAMMPS data file via write_data, version 29 Aug 2024, timestep = 4400000, units = real

2176 atoms
5 atom types
2368 bonds
5 bond types
3776 angles
7 angle types
5632 dihedrals
10 dihedral types
1216 impropers
4 improper types

-2.1516522886574627 26.549832288657818 xlo xhi
-4.144715183932869 20.644715183930128 ylo yhi
-15.030807040482165 15.030807040482165 zlo zhi

Atom Type Labels

1 c_0
2 cp
3 hc
4 o_1
5 oc

Bond Type Labels

1 c_0-cp
2 c_0-o_1
3 cp-cp
4 cp-hc
5 cp-oc

Angle Type Labels

1 c_0-cp-cp
2 cp-c_0-cp
3 cp-c_0-o_1
4 cp-cp-cp
5 cp-cp-hc
6 cp-cp-oc
7 cp-oc-cp

Dihedral Type Labels

1 cp-c_0-cp-cp
2 o_1-c_0-cp-cp
3 c_0-cp-cp-cp
4 cp-cp-cp-cp
5 c_0-cp-cp-hc
6 cp-cp-cp-hc
7 hc-cp-cp-hc
8 cp-cp-cp-oc
9 hc-cp-cp-oc
10 cp-cp-oc-cp

Improper Type Labels

1 c_0-cp-cp-cp-nb==3
2 cp-c_0-cp-o_1-nb==3
3 cp-cp-cp-hc-nb==3
4 cp-cp-cp-oc-nb==3

Masses

1 12.01115
2 12.01115
3 1.00797
4 15.9994
5 15.9994

Pair Coeffs # lj/class2/coul/long

1 0.12 3.308
2 0.064 4.01
3 0.02 2.3
4 0.267 3.3
5 0.24 3.535

Bond Coeffs # class2

1 1.489 339.357 -655.724 670.236
2 1.216 823.795 -1878.79 2303.53
3 1.417 470.836 -627.618 1327.63
4 1.0982 372.825 -803.453 894.317
5 1.3768 428.88 -738.235 1114.97

Angle Coeffs # class2

1 108.4 43.9594 -8.3924 -9.3379
2 110.588 34.6214 -7.0939 -7.4032
3 119.3 65.1016 -17.9766 0
4 118.9 61.0226 -34.9931 0
5 117.94 35.1558 -12.4682 0
6 123.42 73.6781 -21.6787 0
7 109.5 60 0 0

BondBond Coeffs

1 0 1.489 1.417
2 0 1.489 1.489
3 0 1.489 1.216
4 68.2856 1.417 1.417
5 1.0795 1.417 1.0982
6 48.4754 1.417 1.3768
7 0 1.3768 1.3768

BondAngle Coeffs

1 0 0 1.489 1.417
2 0 0 1.489 1.489
3 0 0 1.489 1.216
4 28.8708 28.8708 1.417 1.417
5 20.0033 24.2183 1.417 1.0982
6 58.479 107.681 1.417 1.3768
7 0 0 1.3768 1.3768

Dihedral Coeffs # class2

1 0 0 2.5 0 0 0
2 0 0 0.9063 0 0 0
3 0 0 4.6282 0 0 0
4 8.3667 0 1.1932 0 0 0
5 0 0 2.167 0 0 0
6 0 0 3.9661 0 0 0
7 0 0 1.8769 0 0 0
8 0 0 4.8498 0 0 0
9 0 0 1.7234 0 0 0
10 0 0 1.8 0 0 0

AngleAngleTorsion Coeffs

1 0 110.588 108.4
2 0 119.3 108.4
3 0 108.4 118.9
4 0 118.9 118.9
5 0 108.4 117.94
6 -4.8141 118.9 117.94
7 0.3598 117.94 117.94
8 -21.0247 118.9 123.42
9 4.2296 117.94 123.42
10 0 123.42 109.5

EndBondTorsion Coeffs

1 0 0 0 0 0 0 1.489 1.417
2 0 0 0 0 0 0 1.216 1.417
3 0 0 0 0 0 0 1.489 1.417
4 -0.1185 6.3204 0 -0.1185 6.3204 0 1.417 1.417
5 0 0 0 0 0 0 1.489 1.0982
6 0 -6.8958 0 0 -0.4669 0 1.417 1.0982
7 0 -0.689 0 0 -0.689 0 1.0982 1.0982
8 0 0.2655 0 0 4.8905 0 1.417 1.3768
9 0 -1.5867 0 0 4.2641 0 1.0982 1.3768
10 0 0 0 0 0 0 1.417 1.3768

MiddleBondTorsion Coeffs

1 0 0 0 1.489
2 0 0 0 1.489
3 0 0 0 1.417
4 27.5989 -2.312 0 1.417
5 0 0 0 1.417
6 0 -1.1521 0 1.417
7 0 4.8228 0 1.417
8 0 4.8255 0 1.417
9 0 5.5432 0 1.417
10 0 0 0 1.3768

BondBond13 Coeffs

1 0 1.489 1.417
2 0 1.216 1.417
3 0 1.489 1.417
4 53 1.417 1.417
5 0 1.489 1.0982
6 -6.2741 1.417 1.0982
7 -1.7077 1.0982 1.0982
8 -2.2436 1.417 1.3768
9 2.0517 1.0982 1.3768
10 0 1.417 1.3768

AngleTorsion Coeffs

1 0 0 0 0 0 0 110.588 108.4
2 0 0 0 0 0 0 119.3 108.4
3 0 0 0 0 0 0 108.4 118.9
4 1.9767 1.0239 0 1.9767 1.0239 0 118.9 118.9
5 0 0 0 0 0 0 108.4 117.94
6 0 2.5014 0 0 2.7147 0 118.9 117.94
7 0 2.4501 0 0 2.4501 0 117.94 117.94
8 0 10.0155 0 0 1.7404 0 118.9 123.42
9 0 1.8729 0 0 2.5706 0 117.94 123.42
10 0 0 0 0 0 0 123.42 109.5

Improper Coeffs # class2

1 10 0
2 38.7949 0
3 4.8912 0
4 13.0421 0

AngleAngle Coeffs

1 0 0 0 108.4 118.9 108.4
2 0 0 0 110.588 119.3 119.3
3 0 0 0 118.9 117.94 117.94
4 0 0 0 118.9 123.42 123.42

Atoms # full

13 1 2 0.0265 -0.4689879060740578 -3.217762226837817 -13.755411374354404 0 0 0
14 1 2 -0.1268 -0.9211784016230031 -1.9325761836846693 -13.581394789154967 0 0 0
15 1 2 -0.1268 -0.85466593932748 -1.3184266767517459 -12.38695589192089 0 0 0
16 1 2 0 -0.3147753319626865 -1.9591451841786256 -11.22259759716197 0 0 0
17 1 2 -0.1268 -0.01459484924589427 -3.2730406221564823 -11.359385126371556 0 0 0
120 2 3 0.1268 -0.10074208937046247 1.4634927760802174 -12.635302178357314 0 0 0
81 2 2 0.0265 -0.46980878784613456 3.285533457522548 -13.51366431578234 0 0 0
119 2 3 0.1268 0.1269429493223595 2.372851856787583 -10.21932997031886 0 0 0
86 2 2 -0.1268 -0.1862600272433983 2.5176856588129253 -12.380198242596464 0 0 0
85 2 2 -0.1268 -0.15131423595608462 3.033868514211587 -11.123561113514235 0 0 0
273 5 5 -0.053 3.0583286739667646 -0.839814507536286 -10.219597275113923 0 0 0
279 5 2 0.0265 2.995073276999854 -0.18319331581825704 -11.41878046550005 0 0 0
280 5 2 -0.1268 3.5698700528861584 1.10218803356896 -11.585734080200343 0 0 0
284 5 2 -0.1268 2.381355809044938 -0.7577602724260171 -12.535616053096692 0 0 0
317 5 3 0.1268 4.126779793287763 1.5670849568592864 -10.74520451571279 0 0 0
320 5 3 0.1268 1.7871607084035177 -1.6592581480027562 -12.369541863562196 0 0 0
321 5 3 0.1268 2.1506034433267978 1.6651496785567783 -9.647531517351663 0 0 0
19 1 1 0.3964 -0.3563965161292999 -1.2531036307718693 -9.869926102212716 0 0 0
281 5 2 -0.1268 3.409790056557225 1.8046759899989322 -12.765793859708506 0 0 1
283 5 2 -0.1268 2.3631530436710655 -0.10367674542980954 -13.795539211520877 0 0 1
282 5 2 0.0265 2.889936651626808 1.2078082732967372 -13.890727203484428 0 0 1
2 1 4 -0.3964 -0.44470974358718496 -0.01596797085014945 -9.79143955289847 0 0 0
121 2 3 0.1268 -1.2460761114352517 2.562737481912384 -9.077740056010366 0 0 0
285 5 2 0.0265 3.144704188030139 -0.1893242844491807 -8.945769733234108 0 0 0
286 5 2 -0.1268 2.5826854040792178 1.1040746955699117 -8.841304137032981 0 0 0
20 1 2 0 -0.2204788914860627 -1.9639667456611036 -8.508990638856186 0 0 0
522 8 3 0.1268 4.249705155122831 -3.2998738236638063 -12.932668187440726 0 1 1
319 5 3 0.1268 1.6115375305421704 -0.42637494052868874 -14.554601072845125 0 0 1
50 1 3 0.1268 -1.2584219454415213 -0.31237730827770394 -12.37929860632309 0 0 0
318 5 3 0.1268 3.710322768593217 2.8645212723919995 -12.854800529277512 0 0 1
21 1 2 -0.1268 -0.4136741373172952 -3.3153011573063136 -8.374035238655889 0 0 0
49 1 3 0.1268 -1.3379459891750043 -1.4061304792207743 -14.438620361227446 0 0 0
89 2 2 -0.1268 -0.8699929554336039 3.068341828114022 -8.197639838542532 0 0 0
53 1 3 0.1268 -0.7871826456957214 -3.865838186138476 -9.276544559877536 0 0 0
18 1 2 -0.1268 -0.06548546304332303 -3.9152976293214095 -12.586480836308986 0 0 0
1 1 5 -0.053 -0.3803842571972387 -3.8944453571938484 -14.925796397926378 0 0 0
51 1 3 0.1268 0.40263436562410115 -3.80813498795527 -10.504347658472751 0 0 0
324 5 3 0.1268 4.126201962781241 -1.911531830657264 -7.97378135845412 0 0 0
290 5 2 -0.1268 3.7031164288375935 -0.8886083824138011 -7.836027650234901 0 0 0
69 2 5 -0.053 -0.6035268790806536 2.5354799165718056 -14.661349542790713 0 0 0
525 8 3 0.1268 2.672306822180232 -3.9551865648623803 -9.204212766956271 0 1 0
287 5 2 -0.1268 2.5578679702698475 1.6647426410576234 -7.61063106929508 0 0 0
613 10 5 -0.053 6.43432199183701 2.4659895561350043 -14.701774021704969 0 0 0
665 10 3 0.1268 6.037625862656206 2.521968864468885 -9.053054079331442 0 0 0
594 9 3 0.1268 5.805577772475568 -0.12729157708247651 -12.5214681911577 0 0 0
558 9 2 -0.1268 6.167198091326744 -1.6504336252723828 -13.8911116200101 0 0 0
559 9 2 -0.1268 6.2526569880678515 -1.1015908865495705 -12.625984736865135 0 0 0
560 9 2 0 6.8299594192272455 -1.7329547519382524 -11.547901644689441 0 0 0
664 10 3 0.1268 7.559150252544139 1.6060469214195257 -12.722789984811207 0 0 0
663 10 3 0.1268 7.553300725072701 2.5235145899323292 -10.368701993528934 0 0 0
630 10 2 -0.1268 7.282546222820846 2.6277392717441908 -12.52292995446778 0 0 0
629 10 2 -0.1268 7.2174184503188865 3.120825112695023 -11.210312566083896 0 0 0
817 13 5 -0.053 10.653336255140507 -0.8116913553622997 -10.033049301258536 0 0 0
823 13 2 0.0265 10.50526441809983 -0.10786128412345963 -11.243667128100599 0 0 0
824 13 2 -0.1268 10.902157281207776 1.2237144371219104 -11.364415910621105 0 0 0
828 13 2 -0.1268 9.965889741797985 -0.7568315428866956 -12.354718518778446 0 0 0
829 13 2 0.0265 10.544984698394698 -0.12500309914206564 -8.778088899847642 0 0 0
830 13 2 -0.1268 10.093443128946742 1.2110338706701906 -8.686264012346504 0 0 0
864 13 3 0.1268 9.535687491380312 -1.7171764122593598 -12.226323682903807 0 0 0
865 13 3 0.1268 9.660262528609664 1.7759262955149087 -9.495907109897917 0 0 0
546 9 4 -0.3964 6.611644344558309 0.2344069419444592 -10.271957354275704 0 0 0
563 9 1 0.3964 6.839672289511952 -0.9786669550597051 -10.256735861506314 0 0 0
825 13 2 -0.1268 10.874812222167836 1.8427698886041046 -12.58799731966656 0 0 1
557 9 2 0.0265 6.787080074382434 -2.9120158286726987 -14.16655006096241 0 0 0
561 9 2 -0.1268 7.407670311833122 -2.9944858416855142 -11.764458612283136 0 0 0
625 10 2 0.0265 6.674141412557576 3.283978717309674 -13.568061155072852 0 0 0
827 13 2 -0.1268 10.02543214659591 -0.1651170779143567 -13.607674846479062 0 0 1
826 13 2 0.0265 10.532668158518161 1.140767915203729 -13.768270525907841 0 0 1
633 10 2 -0.1268 6.557883171204203 3.0770590216157148 -8.271996592383438 0 0 0
564 9 2 0 6.930527591304276 -1.7049151969506093 -8.933182697660495 0 0 0
565 9 2 -0.1268 6.395661105318625 -3.013570972842884 -8.809311849441398 0 0 0
863 13 3 0.1268 9.534491205055168 -0.6699192111674939 -14.474969165074437 0 0 1
862 13 3 0.1268 11.074941062748668 2.936887986291403 -12.734387791915353 0 0 1
1066 16 3 0.1268 11.342065499217004 -3.0584758308359072 -12.59002895870396 0 1 1
562 9 2 -0.1268 7.239242225092504 -3.6056483000143817 -13.009952620064116 0 0 0
593 9 3 0.1268 5.637994264948352 -1.1610638598762963 -14.701247222674684 0 0 0
597 9 3 0.1268 5.852698307718283 -3.524672815676389 -9.626971211638583 0 0 0
595 9 3 0.1268 7.911154860743482 -3.6430187118577466 -10.958766243368185 0 0 0
868 13 3 0.1268 11.608684408855959 -1.6394685954766852 -7.786060162889799 0 0 0
861 13 3 0.1268 11.502162727980737 1.7582786503296965 -10.674857625565128 0 0 0
834 13 2 -0.1268 11.137269746729851 -0.6884042828011481 -7.672907648178438 0 0 0
600 9 3 0.1268 7.917252367541819 0.006650596540153764 -7.749190876788485 0 0 0
569 9 2 -0.1268 7.52706215647531 -1.0787567738240482 -7.779506092916913 0 0 0
566 9 2 -0.1268 6.487758805324463 -3.5853984377079806 -7.552013158460148 0 0 0
820 13 5 -0.053 10.665101868860695 1.76798440328096 -14.945038753464319 0 0 1
84 2 2 0 -0.42157408027851684 4.41269395393843 -11.006095613718614 0 0 0
88 2 2 0 -0.45452848118150224 4.425039746162481 -8.342645846911159 0 0 0
137 3 5 -0.053 -0.308871580045194 8.492697681855827 -14.2972483747822 0 0 0
344 6 5 -0.053 3.259022265469679 8.240362133934692 -14.753499245025893 0 0 1
82 2 2 -0.1268 -0.7737600234125541 4.662251329975719 -13.382308131326885 0 0 0
117 2 3 0.1268 -0.98680423119484 5.29018427047043 -14.275479472954125 0 0 0
388 6 3 0.1268 2.280639336462051 4.626707207301758 -11.989024984115623 0 0 0
189 3 3 0.1268 -1.2810502386693154 8.625166388727317 -8.826987091992798 0 0 0
118 2 3 0.1268 -0.8486294721605263 6.283475536089268 -12.087656593305999 0 0 0
83 2 2 -0.1268 -0.7349544789470739 5.182883388742434 -12.110440391800118 0 0 0
341 6 5 -0.053 3.3621398479779234 5.540543174552351 -9.819799094267406 0 0 0
347 6 2 0.0265 3.34010598360101 6.205668266320544 -10.985628498927035 0 0 0
352 6 2 -0.1268 2.7093936206624427 5.608126424724471 -12.090954973483932 0 0 0
188 3 3 0.1268 0.7030574654525159 7.661919524535868 -12.02020874059442 0 0 0
348 6 2 -0.1268 3.9957416913145662 7.393890759034653 -11.199920516116155 0 0 0
389 6 3 0.1268 2.5736696138409014 8.102402877754253 -9.454863448722168 0 0 0
187 3 3 0.1268 0.7196841563834604 8.752778010343684 -9.971363962567967 0 0 0
154 3 2 -0.1268 0.30290397021413007 8.678061895378743 -11.943029385745195 0 0 0
153 3 2 -0.1268 0.2936214694170407 9.350178067576856 -10.778516968340885 0 0 0
152 3 2 0 -0.2655436804026061 10.588055662825337 -10.641816613749205 0 0 0
151 3 2 -0.1268 -0.8708100303120909 11.182287905474883 -11.769847369426877 0 0 0
409 7 5 -0.053 3.4451575237582865 11.671764092497883 -9.781937622065342 0 0 0
155 3 1 0.3964 -0.36204312346359413 11.319312268518157 -9.318810648205247 0 0 0
349 6 2 -0.1268 3.9378792675152097 8.094910595747557 -12.405119749825445 0 0 1
87 2 1 0.3964 -0.3802472883717214 5.120770259662303 -9.700423435015974 0 0 0
70 2 4 -0.3964 -0.1357883700243887 6.29966999487822 -9.700361235064765 0 0 0
456 7 3 0.1268 2.3725091061929513 10.672281301212035 -11.85553725012466 0 0 0
149 3 2 0.0265 -0.2412169718080175 9.290372937565001 -13.10116721231884 0 0 0
150 3 2 -0.1268 -0.8765304870096853 10.554343095109687 -12.990263683081912 0 0 0
350 6 2 0.0265 3.2622181303539124 7.511995822111915 -13.532004329279818 0 0 1
351 6 2 -0.1268 2.646202444519446 6.294158826035554 -13.325908093727442 0 0 1
156 3 2 0 -0.4000331796163532 10.505378409038634 -8.084703386260413 0 0 0
353 6 2 0.0265 3.331198953452528 6.248318688292946 -8.670393174570876 0 0 0
354 6 2 -0.1268 2.850675591855932 7.525089035358448 -8.494207159976945 0 0 0
157 3 2 -0.1268 -0.9358063588591077 9.211435541841057 -7.99223193083789 0 0 0
420 7 2 -0.1268 2.8539319395584286 11.712147309655334 -12.025850890927648 0 0 0
386 6 3 0.1268 4.564991657426285 8.987616738022052 -12.572593880686853 0 0 1
387 6 3 0.1268 2.097563864193722 5.8249629449977505 -14.12899530071627 0 0 1
385 6 3 0.1268 4.673823897602416 7.832355275330892 -10.462569964987043 0 0 0
185 3 3 0.1268 -1.3729798543771454 11.035564287867368 -13.811099163269562 0 0 0
186 3 3 0.1268 -1.318297374916152 12.200660731554843 -11.673446563007575 0 0 0
392 6 3 0.1268 4.221105320436963 4.563736299816934 -7.5328034185479575 0 0 0
358 6 2 -0.1268 3.799472567157797 5.5692523850911115 -7.528351765089959 0 0 0
455 7 3 0.1268 2.4737887290431004 11.673757297250177 -14.154875784588091 0 0 1
415 7 2 0.0265 3.4868341091647084 12.275777962789041 -10.983454301498519 0 0 0
421 7 2 0.0265 3.5717437615043854 12.324586148547136 -8.578403230515585 0 0 0
419 7 2 -0.1268 2.7845203820121043 12.332006315935866 -13.246239201100787 0 0 1
181 3 3 0.1268 0.4519780602087984 11.088634468908069 -14.868744818017761 0 0 0
626 10 2 -0.1268 6.215266224497302 4.630597865091238 -13.38376925019271 0 0 0
628 10 2 0 6.803638259750455 4.451270258770526 -11.064785401500194 0 0 0
729 11 3 0.1268 6.247060288056687 11.0702226084764 -14.098403881803979 0 0 0
632 10 2 0 6.982507223067563 4.379960810498661 -8.45802920984011 0 0 0
932 14 3 0.1268 9.457959870704562 4.360577921065929 -12.397767827565895 0 0 0
730 11 3 0.1268 6.074024542056371 12.091836950053727 -11.876695787027467 0 0 0
733 11 3 0.1268 6.110299539166727 8.3711346062739 -8.938999621127168 0 0 0
662 10 3 0.1268 5.8849219893482605 6.213534319566538 -11.897751721717954 0 0 0
1000 15 3 0.1268 9.42472568160794 10.726655653815618 -11.9477057156645 0 0 0
627 10 2 -0.1268 6.274162247406659 5.170457894020844 -12.134325558504731 0 0 0
631 10 1 0.3964 6.752249019771927 5.121892318602159 -9.76102604863668 0 0 0
885 14 5 -0.053 10.564594312151618 5.351748264164042 -10.19674072381011 0 0 0
891 14 2 0.0265 10.480645723874867 6.069696076990999 -11.388967877037073 0 0 0
896 14 2 -0.1268 9.899305517463853 5.404251935116404 -12.492215024561723 0 0 0
897 14 2 0.0265 10.608070176722293 5.966808787784348 -8.993593133082605 0 0 0
732 11 3 0.1268 7.980272965879358 7.6148752324060975 -12.41109186232113 0 0 0
731 11 3 0.1268 7.8434375093438895 8.431200099949672 -10.199848508065642 0 0 0
698 11 2 -0.1268 7.562112176401262 8.6153435223835 -12.281585961851391 0 0 0
697 11 2 -0.1268 7.513036141168541 9.06499434332251 -11.005343308666278 0 0 0
696 11 2 0 6.998485873586612 10.365537674310053 -10.86483807305738 0 0 0
695 11 2 -0.1268 6.60063330932317 11.139366198449771 -11.979529614871668 0 0 0
895 14 2 -0.1268 9.8548349048898 5.989530387834101 -13.732654223097814 0 0 1
614 10 4 -0.3964 6.605026418592285 6.337551157235309 -9.732522291256306 0 0 0
699 11 1 0.3964 6.949175314365348 11.146185709800248 -9.564257919601665 0 0 0
893 14 2 -0.1268 11.052141409837152 7.900621499103023 -12.857781808232751 0 0 1
894 14 2 0.0265 10.430101601648543 7.230080043014821 -13.98720166273356 0 0 1
898 14 2 -0.1268 10.17783204963185 7.2955193545921855 -8.927136145621944 0 0 0
964 15 2 -0.1268 9.805988804925537 11.75798158793523 -12.091879959068592 0 0 0
953 15 5 -0.053 10.568059413128863 11.686605559505336 -9.796818393680542 0 0 0
933 14 3 0.1268 9.853713877091124 7.746856117120805 -9.919217336360227 0 0 0
892 14 2 -0.1268 11.17134817170045 7.232033840435594 -11.648671064982915 0 0 0
700 11 2 0 6.973443804380727 10.323979355577068 -8.276776888174115 0 0 0
693 11 2 0.0265 7.236793167503963 9.299383081944985 -13.428059723063805 0 0 0
694 11 2 -0.1268 6.7234691284390244 10.581052682133873 -13.244104927107552 0 0 0
701 11 2 -0.1268 6.479276366592972 9.030097817841341 -8.109040205055303 0 0 0
661 10 3 0.1268 5.703462590699671 5.187027986798281 -14.153146513060205 0 0 0
999 15 3 0.1268 9.101774831125581 11.824238784062663 -14.005726637965033 0 0 1
929 14 3 0.1268 11.646118889314515 7.802457434893112 -10.795346264536601 0 0 0
682 11 4 -0.3964 7.002687043514097 12.333897589691135 -9.595635135775474 0 0 0
930 14 3 0.1268 11.508783095598899 8.92182016746575 -13.064521121541706 0 0 1
931 14 3 0.1268 9.339399638314285 5.417582769047309 -14.533840954245925 0 0 1
936 14 3 0.1268 11.58660922245946 4.304797834104788 -7.921994350965379 0 0 0
902 14 2 -0.1268 11.186400159010587 5.370464056328094 -7.833678718474053 0 0 0
1004 15 3 0.1268 11.153064955313777 10.588924036650171 -7.5198620295965055 0 0 0
899 14 2 -0.1268 10.21525273268506 7.984288305554369 -7.7280253072591965 0 0 0
934 14 3 0.1268 9.810166005720868 8.98563127287634 -7.547741417332254 0 0 0
681 11 5 -0.053 7.439443627687199 8.679263495339027 -14.696727882970244 0 0 0
965 15 2 0.0265 10.511126210928026 12.345077072916046 -8.628889771139002 0 0 0
959 15 2 0.0265 10.425881692695466 12.334392900653375 -10.947356070285597 0 0 0
138 3 4 -0.3964 -0.38856874928280183 12.53920636251033 -9.259744361404563 0 0 0
521 8 3 0.1268 4.430440041192541 20.473779559977444 -10.546785702618088 0 0 0
485 8 2 -0.1268 3.7973836372845167 20.53760744784548 -12.549663005041355 0 0 1
52 1 3 0.1268 0.32302716083856575 19.848632756552007 -12.742906706832116 0 -1 0
484 8 2 -0.1268 3.716419738343248 20.022907835753138 -11.270156582407665 0 0 0
490 8 2 -0.1268 2.9565949867892938 20.144604331970655 -8.413143382349332 0 0 0
217 4 2 0.0265 -0.4126263633558527 15.243734680028863 -13.399387100497584 0 0 0
488 8 2 -0.1268 2.554754398316998 18.029385449831288 -12.10982642353568 0 0 0
416 7 2 -0.1268 3.995395885772427 13.551100614137729 -11.20212031948792 0 0 0
422 7 2 -0.1268 3.0480920165741896 13.672974479895549 -8.457188991868012 0 0 0
457 7 3 0.1268 2.5476994875381163 14.154126862886864 -9.323746306376457 0 0 0
256 4 3 0.1268 0.7239800847746425 13.654989558161079 -12.188366741106126 0 0 0
255 4 3 0.1268 0.7553040992110396 14.867872526993823 -10.224196406163411 0 0 0
218 4 2 -0.1268 -0.9923492457116081 16.515396808556318 -13.253756093019925 0 0 0
219 4 2 -0.1268 -0.953615034339411 17.222497825795188 -12.035757667129985 0 0 0
220 4 2 0 -0.3679451526535924 16.61077624884973 -10.897650150548817 0 0 0
221 4 2 -0.1268 0.18702866774753923 15.34095984440569 -11.039381334645142 0 0 0
222 4 2 -0.1268 0.193112902947715 14.657353846508451 -12.253749681859265 0 0 0
477 8 5 -0.053 3.0628588657265405 18.12938666659337 -9.8081369970303 0 0 0
483 8 2 0.0265 3.0894498448692262 18.762017901763826 -11.034509916683291 0 0 0
489 8 2 0.0265 3.2434271933680705 18.778969901630994 -8.584273372183485 0 0 0
223 4 1 0.3964 -0.2858139542873348 17.485213249560154 -9.69231297571612 0 0 0
206 4 4 -0.3964 -0.2823536556900972 18.71365929735363 -9.725930046598208 0 0 0
524 8 3 0.1268 2.1628410678778263 17.081653850059055 -11.81393703181401 0 0 0
417 7 2 -0.1268 3.9154495371134823 14.170447549018407 -12.434359191949461 0 0 1
486 8 2 0.0265 3.2061942030412167 19.819186347718727 -13.629224570966555 0 0 1
487 8 2 -0.1268 2.5916976463329613 18.54989675515285 -13.403736860204857 0 0 1
418 7 2 0.0265 3.3043516750342032 13.561813890443448 -13.543635781501383 0 0 1
224 4 2 0 -0.21271664338114205 16.81642684807668 -8.348943352918136 0 0 0
257 4 3 0.1268 -0.9791425448223443 14.633332843328459 -8.825935305265133 0 0 0
254 4 3 0.1268 -1.1955390185310586 18.33813865687901 -12.059864911864203 0 0 0
225 4 2 -0.1268 -0.5629369978999728 15.433038016123819 -8.159489464489127 0 0 0
253 4 3 0.1268 -1.6008901778359517 17.0588009926131 -13.98785469561514 0 0 0
453 7 3 0.1268 4.616458203431513 14.127362015609924 -10.452973067679693 0 0 0
523 8 3 0.1268 2.0340587133337955 18.069116728521912 -14.222768936774472 0 0 1
454 7 3 0.1268 4.35722538088505 15.165139892852364 -12.464639250813248 0 0 1
494 8 2 -0.1268 3.7499169502642076 17.98979659864002 -7.51996281760563 0 0 0
528 8 3 0.1268 4.032099834363468 16.991231355981938 -7.885582680611586 0 0 0
205 4 5 -0.053 -0.3121949896725287 14.569386033613833 -14.579203276101508 0 0 0
412 7 5 -0.053 3.0830789445700955 14.241550112837283 -14.714927637909401 0 0 1
480 8 5 -0.053 3.42533964861891 20.448736646859672 -14.866897150780492 0 0 1
1029 16 2 -0.1268 11.011499042383308 20.61023143035262 -12.450563722322512 0 0 1
1065 16 3 0.1268 11.36918449937814 20.5657005454407 -10.339977249845887 0 0 0
963 15 2 -0.1268 9.676617236735748 12.424402399724707 -13.26785888607121 0 0 1
956 15 5 -0.053 10.313678178304817 14.247833361491493 -14.729093797247058 0 0 1
1069 16 3 0.1268 9.567701320478166 20.537491155602012 -9.466977940370867 0 0 0
793 12 3 0.1268 5.635510726631636 17.44655164642038 -10.657515571704865 0 0 0
794 12 3 0.1268 5.649219015517487 18.71915752977001 -12.86937010538775 0 0 1
997 15 3 0.1268 11.531839245901145 14.12204904059537 -10.345246811975635 0 0 0
596 9 3 0.1268 7.514671632684035 20.064447141269362 -12.9874373375931 0 -1 0
961 15 2 -0.1268 10.975935906088097 14.253633931203199 -12.425988349797201 0 0 1
960 15 2 -0.1268 10.978934389105815 13.591066533239124 -11.165107274970511 0 0 0
966 15 2 -0.1268 9.922221589635807 13.612590031179666 -8.469978913835398 0 0 0
796 12 3 0.1268 8.265810843169701 14.477609471134576 -12.310070406475383 0 0 0
757 12 2 -0.1268 6.273436961097641 17.782570363500867 -12.749241639915086 0 0 1
1031 16 2 -0.1268 10.007881550126106 18.61569251351203 -13.34597522811112 0 0 1
797 12 3 0.1268 7.743345918126835 17.524669071859556 -9.733904338272096 0 0 0
749 12 5 -0.053 7.017390143539675 15.144442072640237 -10.25997649159515 0 0 0
755 12 2 0.0265 6.982945921342287 15.894446154774611 -11.444087942083389 0 0 0
1001 15 3 0.1268 9.682756401101981 14.126135974745585 -9.326151698372655 0 0 0
1021 16 5 -0.053 10.523308011391444 18.00894431515421 -9.836398962554192 0 0 0
1027 16 2 0.0265 10.511146354659818 18.72455036177429 -10.995896461899019 0 0 0
1028 16 2 -0.1268 11.054745190137444 20.00744704514603 -11.194758599568193 0 0 0
1033 16 2 0.0265 10.338067804357635 18.647698027766545 -8.615579102015904 0 0 0
1034 16 2 -0.1268 9.72466150863922 19.944983855196753 -8.545482436782235 0 0 0
756 12 2 -0.1268 6.181242662804102 17.07152135561443 -11.570120490689057 0 0 0
1032 16 2 -0.1268 10.042791079957578 18.068814901952784 -12.103361666973221 0 0 0
1068 16 3 0.1268 9.549744471644397 17.096246128986017 -11.984896430357832 0 0 0
760 12 2 -0.1268 7.732761779598606 15.413102792013126 -12.53422466360037 0 0 0
759 12 2 -0.1268 7.58639825062086 16.049124104326715 -13.76285815743043 0 0 1
1030 16 2 0.0265 10.515660441339975 19.92297574199081 -13.563650553171428 0 0 1
962 15 2 0.0265 10.341335797617438 13.576646652071185 -13.494792111092895 0 0 1
758 12 2 0.0265 6.853132105638014 17.24268670088285 -13.86797151896483 0 0 1
761 12 2 0.0265 6.856370606171559 15.646866429027865 -9.05757734384153 0 0 0
762 12 2 -0.1268 7.328465726903342 16.970316973597228 -8.80430365683249 0 0 0
998 15 3 0.1268 11.494485835352211 15.215592449190519 -12.549483621104724 0 0 1
1067 16 3 0.1268 9.637989558391732 17.98904630403149 -14.11541849640942 0 0 1
795 12 3 0.1268 8.242548561737065 15.642207775200385 -14.605987286298106 0 0 1
1024 16 5 -0.053 10.582255573633699 20.47269108073486 -14.843023349252988 0 0 1
800 12 3 0.1268 6.112010813010315 13.804184795589263 -8.2163179190591 0 0 0
766 12 2 -0.1268 6.493766975343776 14.808593663407235 -7.948432465280795 0 0 0
763 12 2 -0.1268 7.404403297686629 17.484397757508816 -7.553043057986738 0 0 0
127 2 3 0.1268 0.6229531238064405 2.5173911637279645 -0.30181620764352246 0 0 0
58 1 3 0.1268 -1.3503190340802984 -0.4174274526295618 -2.005510524281041 0 0 0
56 1 3 0.1268 -0.10857330390467634 -0.1294576585181062 -7.422042693866936 0 0 0
25 1 2 -0.1268 -0.06428764956380206 -1.179818805036545 -7.3639982629366 0 0 0
322 5 3 0.1268 2.0341938839754032 2.62317187736413 -7.428218854771222 0 0 0
526 8 3 0.1268 2.583797281065654 -3.1090048041670224 -7.072460786153268 0 1 0
90 2 2 -0.1268 -0.8492675046449627 2.4886358586092046 -6.920073850827823 0 0 0
295 5 2 0.0265 3.2995741664883687 0.2356557372563488 -1.2688510608155141 0 0 0
296 5 2 -0.1268 3.7579249205307956 1.5449899133463179 -1.4984825943154352 0 0 0
288 5 2 0 3.126467325780986 1.0962208469869559 -6.4793690587571415 0 0 0
289 5 2 -0.1268 3.7097839679851674 -0.2361623192074589 -6.633020071617265 0 0 0
28 1 2 -0.1268 -0.8338704945652002 -1.3127264491464419 -2.234237120502323 0 0 0
94 2 2 0.0265 -0.4670396986174812 3.148319428409839 -3.3835026887647004 0 0 0
91 2 2 0.0265 -0.4722002066768014 3.2017362892718513 -5.767179499570011 0 0 0
71 2 5 -0.053 -0.39263864108898083 2.523986152369229 -4.593666864768364 0 0 0
55 1 3 0.1268 0.09835083238264541 -1.106373217326479 -5.21220751329872 0 0 0
27 1 2 -0.1268 -0.8344615651024236 -1.9761361140268958 -3.472354778035715 0 0 0
26 1 2 0.0265 0.007678021329092122 -3.1368667175041898 -3.5914989835519844 0 0 0
24 1 2 -0.1268 -0.03984734830424985 -1.7443592190738957 -6.1178456947098905 0 0 0
23 1 2 0.0265 -0.08635322956471514 -3.122180247986206 -6.014682893064263 0 0 0
274 5 4 -0.3964 3.4272910528117677 3.2035029917170386 -5.328505194024153 0 0 0
291 5 1 0.3964 3.3070477520939283 1.9636939131248088 -5.215754976149626 0 0 0
292 5 2 0 3.3699853006494234 1.264413589924592 -3.8329468757512046 0 0 0
293 5 2 -0.1268 2.9011491450335445 -0.008124136292301465 -3.6690778208698553 0 0 0
294 5 2 -0.1268 2.814083947057001 -0.514114471011843 -2.37214201614203 0 0 0
297 5 2 -0.1268 3.7719970495452158 2.0371159058203228 -2.758911465097281 0 0 0
325 5 3 0.1268 2.3889091854086875 -0.5379628934317102 -4.520413195085226 0 0 0
326 5 3 0.1268 2.4590463391347104 -1.5647122379531138 -2.306799516171397 0 0 0
328 5 3 0.1268 4.072478216368701 3.1005061504823015 -2.867135872369454 0 0 0
128 2 3 0.1268 0.5073249928379187 1.5228315880455439 -2.506698252257207 0 0 0
99 2 2 -0.1268 0.10004949229346893 2.491522053560219 -2.292764781592455 0 0 0
478 8 4 -0.3964 3.6002765442925178 -3.077949330087315 -4.682515234439682 0 1 0
323 5 3 0.1268 4.179770302366926 -0.6990451374142417 -5.738372604908436 0 0 0
30 1 2 -0.1268 0.5059852795941215 -3.0139312121231505 -1.217008172626631 0 0 0
29 1 2 0.0265 -0.2191488635049541 -1.8475894476946801 -1.0534640297704811 0 0 0
532 8 3 0.1268 4.428887464432304 -3.544604563998341 -2.4152482074618273 0 1 0
98 2 2 -0.1268 0.20864979159356256 3.0952330703158086 -1.09836418997382 0 0 0
122 2 3 0.1268 -1.15073450881468 1.421639672341719 -6.808139810859421 0 0 0
57 1 3 0.1268 -1.4022697844167242 -1.601808472640132 -4.36166140188784 0 0 0
31 1 2 -0.1268 0.6869545914277557 -3.5649812795073776 -2.4534680711718337 0 0 0
3 1 5 -0.053 0.22743971804469965 -3.754897071595942 -4.789322873293422 0 0 0
22 1 2 -0.1268 -0.35389343081448454 -3.929984004401454 -7.139491972579689 0 0 0
327 5 3 0.1268 4.130916255607176 2.2577379639390376 -0.7202541267335025 0 0 0
59 1 3 0.1268 1.067616256967257 -3.401670526308582 -0.3740862158781546 0 0 0
275 5 5 -0.053 3.5913562823187037 -0.48079166374879057 -0.1093226645714509 0 0 0
831 13 2 -0.1268 10.161587897923262 1.8996700610710473 -7.466462786765757 0 0 0
866 13 3 0.1268 9.718639179168433 2.9083376850646614 -7.327925580649209 0 0 0
1070 16 3 0.1268 9.613491870398688 -3.093575762863602 -7.298412111733043 0 1 0
634 10 2 -0.1268 6.767703773111032 2.4035250139988014 -7.042856942055826 0 0 0
602 9 3 0.1268 6.337375584519995 0.14955129356869534 -2.4688263722844557 0 0 0
666 10 3 0.1268 6.641870745585409 1.38152009608201 -7.040883132933471 0 0 0
1076 16 3 0.1268 11.167973050731058 -3.1730741947658063 -2.4281267080096303 0 1 0
601 9 3 0.1268 6.314035037047228 -0.8817528286665817 -4.664992676896434 0 0 0
867 13 3 0.1268 11.360677009593037 -0.5961156094225708 -5.473755939416481 0 0 0
839 13 2 0.0265 10.460506694366298 -0.03990683205696044 -1.1413566554660886 0 0 0
833 13 2 -0.1268 11.10208132659705 -0.06346496822859393 -6.42707957074184 0 0 0
832 13 2 0 10.617523577724661 1.2649676067292415 -6.2779534704675815 0 0 0
872 13 3 0.1268 11.153715850173262 3.0270585199902014 -2.5011865964500632 0 0 0
643 10 2 -0.1268 7.556836912184522 2.624514808049634 -2.248883619338452 0 0 0
638 10 2 0.0265 7.057356871285354 3.1960654101243398 -3.474465230602128 0 0 0
635 10 2 0.0265 7.170764098183717 3.1681037926613485 -5.919179890362079 0 0 0
615 10 5 -0.053 7.40155450175431 2.558970221022828 -4.656470091439683 0 0 0
599 9 3 0.1268 7.715836027021593 -1.075909915752089 -5.7092343923670015 0 0 0
571 9 2 -0.1268 6.597739604762539 -1.5293275811050293 -3.795530689573921 0 0 0
570 9 2 0.0265 6.846976906545512 -2.916269967786501 -3.9771675109488207 0 0 0
568 9 2 -0.1268 7.382514293342085 -1.6151800815813826 -6.548216679343152 0 0 0
567 9 2 0.0265 6.8766289697059015 -2.904858483096665 -6.390223363418366 0 0 0
818 13 4 -0.3964 10.755962984532447 3.3243013395685415 -4.994057785514123 0 0 0
835 13 1 0.3964 10.646000029463952 2.1051805896624973 -5.012961389407577 0 0 0
836 13 2 0 10.632832375693399 1.3541472615440329 -3.682034251046799 0 0 0
837 13 2 -0.1268 10.196642492055872 0.023524790395977213 -3.603390658029914 0 0 0
838 13 2 -0.1268 10.144449723517003 -0.6644423493829472 -2.375549589678645 0 0 0
573 9 2 0.0265 6.793142997252426 -1.6563401344300699 -1.3523803390915017 0 0 0