LAMMPS data file via write_data, version 29 Aug 2024, timestep = 4400000, units = real

2176 atoms
5 atom types
2368 bonds
5 bond types
3776 angles
7 angle types
5632 dihedrals
10 dihedral types
1216 impropers
4 improper types

-2.296862090527279 26.69504209052425 xlo xhi
-4.088547708502405 20.588547708501594 ylo yhi
-15.003733015526953 15.003733015526953 zlo zhi

Atom Type Labels

1 c_0
2 cp
3 hc
4 o_1
5 oc

Bond Type Labels

1 c_0-cp
2 c_0-o_1
3 cp-cp
4 cp-hc
5 cp-oc

Angle Type Labels

1 c_0-cp-cp
2 cp-c_0-cp
3 cp-c_0-o_1
4 cp-cp-cp
5 cp-cp-hc
6 cp-cp-oc
7 cp-oc-cp

Dihedral Type Labels

1 cp-c_0-cp-cp
2 o_1-c_0-cp-cp
3 c_0-cp-cp-cp
4 cp-cp-cp-cp
5 c_0-cp-cp-hc
6 cp-cp-cp-hc
7 hc-cp-cp-hc
8 cp-cp-cp-oc
9 hc-cp-cp-oc
10 cp-cp-oc-cp

Improper Type Labels

1 c_0-cp-cp-cp-nb==3
2 cp-c_0-cp-o_1-nb==3
3 cp-cp-cp-hc-nb==3
4 cp-cp-cp-oc-nb==3

Masses

1 12.01115
2 12.01115
3 1.00797
4 15.9994
5 15.9994

Pair Coeffs # lj/class2/coul/long

1 0.12 3.308
2 0.064 4.01
3 0.02 2.3
4 0.267 3.3
5 0.24 3.535

Bond Coeffs # class2

1 1.489 339.357 -655.724 670.236
2 1.216 823.795 -1878.79 2303.53
3 1.417 470.836 -627.618 1327.63
4 1.0982 372.825 -803.453 894.317
5 1.3768 428.88 -738.235 1114.97

Angle Coeffs # class2

1 108.4 43.9594 -8.3924 -9.3379
2 110.588 34.6214 -7.0939 -7.4032
3 119.3 65.1016 -17.9766 0
4 118.9 61.0226 -34.9931 0
5 117.94 35.1558 -12.4682 0
6 123.42 73.6781 -21.6787 0
7 109.5 60 0 0

BondBond Coeffs

1 0 1.489 1.417
2 0 1.489 1.489
3 0 1.489 1.216
4 68.2856 1.417 1.417
5 1.0795 1.417 1.0982
6 48.4754 1.417 1.3768
7 0 1.3768 1.3768

BondAngle Coeffs

1 0 0 1.489 1.417
2 0 0 1.489 1.489
3 0 0 1.489 1.216
4 28.8708 28.8708 1.417 1.417
5 20.0033 24.2183 1.417 1.0982
6 58.479 107.681 1.417 1.3768
7 0 0 1.3768 1.3768

Dihedral Coeffs # class2

1 0 0 2.5 0 0 0
2 0 0 0.9063 0 0 0
3 0 0 4.6282 0 0 0
4 8.3667 0 1.1932 0 0 0
5 0 0 2.167 0 0 0
6 0 0 3.9661 0 0 0
7 0 0 1.8769 0 0 0
8 0 0 4.8498 0 0 0
9 0 0 1.7234 0 0 0
10 0 0 1.8 0 0 0

AngleAngleTorsion Coeffs

1 0 110.588 108.4
2 0 119.3 108.4
3 0 108.4 118.9
4 0 118.9 118.9
5 0 108.4 117.94
6 -4.8141 118.9 117.94
7 0.3598 117.94 117.94
8 -21.0247 118.9 123.42
9 4.2296 117.94 123.42
10 0 123.42 109.5

EndBondTorsion Coeffs

1 0 0 0 0 0 0 1.489 1.417
2 0 0 0 0 0 0 1.216 1.417
3 0 0 0 0 0 0 1.489 1.417
4 -0.1185 6.3204 0 -0.1185 6.3204 0 1.417 1.417
5 0 0 0 0 0 0 1.489 1.0982
6 0 -6.8958 0 0 -0.4669 0 1.417 1.0982
7 0 -0.689 0 0 -0.689 0 1.0982 1.0982
8 0 0.2655 0 0 4.8905 0 1.417 1.3768
9 0 -1.5867 0 0 4.2641 0 1.0982 1.3768
10 0 0 0 0 0 0 1.417 1.3768

MiddleBondTorsion Coeffs

1 0 0 0 1.489
2 0 0 0 1.489
3 0 0 0 1.417
4 27.5989 -2.312 0 1.417
5 0 0 0 1.417
6 0 -1.1521 0 1.417
7 0 4.8228 0 1.417
8 0 4.8255 0 1.417
9 0 5.5432 0 1.417
10 0 0 0 1.3768

BondBond13 Coeffs

1 0 1.489 1.417
2 0 1.216 1.417
3 0 1.489 1.417
4 53 1.417 1.417
5 0 1.489 1.0982
6 -6.2741 1.417 1.0982
7 -1.7077 1.0982 1.0982
8 -2.2436 1.417 1.3768
9 2.0517 1.0982 1.3768
10 0 1.417 1.3768

AngleTorsion Coeffs

1 0 0 0 0 0 0 110.588 108.4
2 0 0 0 0 0 0 119.3 108.4
3 0 0 0 0 0 0 108.4 118.9
4 1.9767 1.0239 0 1.9767 1.0239 0 118.9 118.9
5 0 0 0 0 0 0 108.4 117.94
6 0 2.5014 0 0 2.7147 0 118.9 117.94
7 0 2.4501 0 0 2.4501 0 117.94 117.94
8 0 10.0155 0 0 1.7404 0 118.9 123.42
9 0 1.8729 0 0 2.5706 0 117.94 123.42
10 0 0 0 0 0 0 123.42 109.5

Improper Coeffs # class2

1 10 0
2 38.7949 0
3 4.8912 0
4 13.0421 0

AngleAngle Coeffs

1 0 0 0 108.4 118.9 108.4
2 0 0 0 110.588 119.3 119.3
3 0 0 0 118.9 117.94 117.94
4 0 0 0 118.9 123.42 123.42

Atoms # full

13 1 2 0.0265 -0.44052780031331795 -2.7385203618218514 -11.637143327950508 0 0 0
14 1 2 -0.1268 -1.2570346709522255 -1.6408335776887597 -11.509842371400435 0 0 0
15 1 2 -0.1268 -1.3861389658248402 -1.0851832198222016 -10.243772547809225 0 0 0
16 1 2 0 -0.733247346455145 -1.5350793491691674 -9.111602165314952 0 0 0
17 1 2 -0.1268 0.123436794940055 -2.6397705501671656 -9.271845889704803 0 0 0
45 1 3 0.1268 0.36708948696630506 -0.9195329174077163 -13.470014258694967 0 0 0
69 2 5 -0.053 -0.7908646988027128 2.349887961817176 -12.726124323173073 0 0 0
120 2 3 0.1268 0.12586494516672042 1.3433311525899816 -10.681481101276834 0 0 0
81 2 2 0.0265 -0.7042156385444749 3.044185288099211 -11.570393934532865 0 0 0
86 2 2 -0.1268 -0.2536424599596945 2.3475542742235973 -10.440537970417157 0 0 0
85 2 2 -0.1268 -0.19390236544604766 2.922922779915292 -9.178269253126519 0 0 0
279 5 2 0.0265 3.2870594685142223 -0.06621317742309873 -9.42607878131517 0 0 0
280 5 2 -0.1268 3.909659823944561 1.1687017710044998 -9.508757575560718 0 0 0
284 5 2 -0.1268 2.6667677860963446 -0.6193948737248922 -10.519722380328158 0 0 0
281 5 2 -0.1268 3.9483293843274065 1.7887421499918972 -10.71375493205359 0 0 1
320 5 3 0.1268 2.35401539629333 -1.6551722423242357 -10.33795283840221 0 0 0
119 2 3 0.1268 0.14126381564774393 2.318898567350992 -8.306157122025041 0 0 0
283 5 2 -0.1268 2.6219805706279216 0.06446998881831778 -11.745865181579546 0 0 1
282 5 2 0.0265 3.2993007857071053 1.2575218227191183 -11.85838440621367 0 0 1
319 5 3 0.1268 2.1085899148881584 -0.28936208961133714 -12.662751433703544 0 0 1
276 5 5 -0.053 3.3313749463535247 2.019425833438542 -13.005171367626009 0 0 1
339 5 3 0.1268 4.348484945589659 -0.318384905653315 -13.552008565763517 0 0 1
50 1 3 0.1268 -2.003842163992455 -0.18924009985593893 -10.080957291984022 0 0 0
49 1 3 0.1268 -1.9796619316138278 -1.4110451150508094 -12.239791896612692 0 0 0
318 5 3 0.1268 4.450134045550359 2.8122022958425923 -10.679523021710438 0 0 1
19 1 1 0.3964 -0.7610906918241851 -0.7607001465405063 -7.8538016242475654 0 0 0
317 5 3 0.1268 4.415359399989284 1.618547082481002 -8.624908126623769 0 0 0
478 8 4 -0.3964 3.5286417980913827 -3.507083405475759 -8.046778383633606 0 1 0
51 1 3 0.1268 0.4848106112958921 -3.196420615996199 -8.376181625069332 0 0 0
526 8 3 0.1268 4.329885785333933 -3.8436155688057574 -10.490318781058448 0 1 0
7 1 2 0.0265 -0.3809803144730457 -2.8259451602608627 -14.06882455877122 0 0 0
2 1 4 -0.3964 -1.1443946302567103 0.40335289656732964 -7.872480728445061 0 0 0
273 5 5 -0.053 3.2904846773238257 -0.8202852004833816 -8.282583237107975 0 0 0
75 2 2 0.0265 -0.6812283235032548 3.0843061325991625 -13.91476400122254 0 0 0
18 1 2 -0.1268 0.20281768509933595 -3.2941320002434686 -10.519086592805959 0 0 0
1 1 5 -0.053 -0.2927748839185549 -3.4561148854961314 -12.846375120157195 0 0 0
314 5 2 0.0265 3.2652442742981096 1.3850998851624228 -14.263706674768056 0 0 1
315 5 2 -0.1268 3.8358846013585586 0.133373370918358 -14.407761639785965 0 0 1
8 1 2 -0.1268 0.06805769688040941 -1.5169110496959846 -14.367398250999475 0 0 0
116 2 3 0.1268 -1.5868434382263312 1.46933760801506 -14.99611110039801 0 0 0
321 5 3 0.1268 2.215811458508134 1.6562438931997683 -7.777598124285435 0 0 0
824 13 2 -0.1268 9.757253007713334 0.9646116025824529 -14.68596328689818 0 0 0
593 9 3 0.1268 5.999732900247208 -1.432851952955151 -13.06079935021927 0 0 0
594 9 3 0.1268 6.318448369054186 -0.38098820525453947 -10.83281564195553 0 0 0
557 9 2 0.0265 6.705001252309758 -3.3676952809346266 -12.310827232419825 0 0 0
558 9 2 -0.1268 6.369553698594437 -2.0247852340041863 -12.191115405446851 0 0 0
559 9 2 -0.1268 6.522709225337586 -1.396941953040527 -10.993884657455137 0 0 0
560 9 2 0 7.021751958402751 -2.074323210120093 -9.880947545249839 0 0 0
561 9 2 -0.1268 7.157242031207309 -3.4653219652435343 -10.012425579930923 0 0 0
664 10 3 0.1268 7.052840623459348 1.2663778081523205 -11.335703011036859 0 0 0
663 10 3 0.1268 7.567141360257903 2.39417167355895 -9.119012154508905 0 0 0
630 10 2 -0.1268 6.959700667147953 2.355761937758902 -11.174515868328452 0 0 0
629 10 2 -0.1268 7.035129287162555 2.9467297586465566 -9.922757486761881 0 0 0
817 13 5 -0.053 10.643710629886167 -0.8163556730083692 -13.26614385510117 0 0 0
829 13 2 0.0265 10.634459713729086 -0.10625985605851485 -12.081545257791637 0 0 0
830 13 2 -0.1268 11.087968288871757 1.2383786326079589 -11.995798601265955 0 0 0
831 13 2 -0.1268 11.001336806438262 1.8992074257221274 -10.792200455821291 0 0 0
832 13 2 0 10.537948185294729 1.2110890389694449 -9.62278796383085 0 0 0
833 13 2 -0.1268 10.167559429772378 -0.15012190326818242 -9.71722342673268 0 0 0
834 13 2 -0.1268 10.241969569910014 -0.8085019041441144 -10.953082426738842 0 0 0
868 13 3 0.1268 9.994958437097054 -1.874802997771234 -11.091175592095166 0 0 0
625 10 2 0.0265 6.657753501924695 3.1090460992622084 -12.27491648598901 0 0 0
867 13 3 0.1268 9.88189784221055 -0.7840280403802926 -8.88355585179994 0 0 0
818 13 4 -0.3964 10.333629398176624 3.2597525499778843 -8.477232134700785 0 0 0
589 9 3 0.1268 7.846538852435307 -1.6175255374527278 -13.953071661546144 0 0 0
613 10 5 -0.053 6.793649091531002 2.4626296072338114 -13.479411626272892 0 0 0
563 9 1 0.3964 7.1211002857602725 -1.3101764538982321 -8.592667839974368 0 0 0
861 13 3 0.1268 9.195060350679917 1.4368518606058105 -13.828815619414883 0 0 0
546 9 4 -0.3964 7.074709197756986 -0.06168165090820743 -8.572420573759747 0 0 0
866 13 3 0.1268 11.310716463564058 2.9474934086476328 -10.57859580460013 0 0 0
835 13 1 0.3964 10.35934035257826 2.037782897187782 -8.361141886290202 0 0 0
865 13 3 0.1268 11.370742293793267 1.7531155544784935 -12.9515982450423 0 0 0
595 9 3 0.1268 7.557576618783665 -4.026901213232918 -9.151536560881727 0 0 0
823 13 2 0.0265 10.514631366875877 -0.15743983753720414 -14.477679607561816 0 0 0
1066 16 3 0.1268 11.728992101688581 -3.531924270676376 -10.919492422847611 0 1 1
545 9 5 -0.053 6.417672095047509 -4.013252488213758 -13.462506750834386 0 0 0
619 10 2 0.0265 6.6514942014018885 3.147203519800242 -14.66502575903775 0 0 0
551 9 2 0.0265 6.7714079082294845 -3.3762377148419174 -14.683406309362292 0 0 0
869 13 3 0.1268 11.133949089443636 -0.41913688617906697 -7.674140763180781 0 0 0
552 9 2 -0.1268 7.430623748306749 -2.1570365340356075 -14.831128533118951 0 0 0
665 10 3 0.1268 6.095294163193955 2.4071827154971874 -7.768562131861753 0 0 0
597 9 3 0.1268 6.092060997651263 -3.8785573990454076 -7.892362172777415 0 0 0
84 2 2 0 -0.6145972661854597 4.2509115669118085 -9.05520544710655 0 0 0
382 6 2 0.0265 3.275896263998356 7.026753180753937 -14.272301892950203 0 0 1
144 3 2 -0.1268 -0.18516657858380325 10.565858402304599 -14.401941611216158 0 0 0
82 2 2 -0.1268 -1.1311541810050567 4.400447408269821 -11.385352729197715 0 0 0
113 2 3 0.1268 0.41090846209643983 4.893171197008664 -13.263943324446007 0 0 0
388 6 3 0.1268 1.9445897075382046 4.431494083149108 -10.28309889081054 0 0 0
117 2 3 0.1268 -1.4463433404148325 4.929469750415269 -12.344589692769265 0 0 0
83 2 2 -0.1268 -1.1066575893196127 4.943938808860883 -10.113421154689043 0 0 0
347 6 2 0.0265 3.1728412147188045 5.959710121932334 -9.278185150010849 0 0 0
352 6 2 -0.1268 2.568217277025223 5.330681118125309 -10.416757177351155 0 0 0
188 3 3 0.1268 0.07192860852591743 7.31923629537294 -11.02537529590985 0 0 0
348 6 2 -0.1268 3.883188763458489 7.120082065865056 -9.547192579760374 0 0 0
181 3 3 0.1268 0.20506132747222994 11.18013405920503 -13.582923977955385 0 0 0
154 3 2 -0.1268 -0.17852577652600043 8.358249336346764 -10.821728877518293 0 0 0
153 3 2 -0.1268 -0.000690577452940655 8.928102149579315 -9.56511071423164 0 0 0
152 3 2 0 -0.39137987048288325 10.296958326989817 -9.27005487401766 0 0 0
151 3 2 -0.1268 -0.915878288106242 11.063013792935646 -10.398288931664412 0 0 0
150 3 2 -0.1268 -1.0882748269325417 10.468609079377801 -11.66613445573978 0 0 0
149 3 2 0.0265 -0.6999550308150411 9.125334504846018 -11.890779598407157 0 0 0
137 3 5 -0.053 -0.7291280244170992 8.51159530578299 -13.124730957679226 0 0 0
409 7 5 -0.053 3.203226310227415 11.02468982383337 -12.819592444344462 0 0 0
426 7 2 -0.1268 2.6189820815937184 11.230110186287 -10.563757085006305 0 0 0
460 7 3 0.1268 2.2724746794885204 10.157804094208174 -10.590244001210618 0 0 0
349 6 2 -0.1268 3.9523520716693525 7.678065065604487 -10.786564819364006 0 0 1
351 6 2 -0.1268 2.704137797493023 5.8061100369224175 -11.693087948168662 0 0 1
350 6 2 0.0265 3.3599611641698424 7.013146525457568 -11.873319374516575 0 0 1
187 3 3 0.1268 0.3247781737843054 8.29523665830752 -8.71813251685833 0 0 0
387 6 3 0.1268 2.1802287851894784 5.227067801511678 -12.428879641329805 0 0 1
344 6 5 -0.053 3.463913726040423 7.710170702480696 -13.094763660399527 0 0 1
407 6 3 0.1268 3.896832066124868 4.938404933327357 -13.706112603873024 0 0 1
341 6 5 -0.053 3.20909013853365 5.280013058284533 -8.155738249359825 0 0 0
143 3 2 0.0265 -0.6813103282314037 9.247360594542378 -14.368823590599776 0 0 0
155 3 1 0.3964 -0.24237710814995372 11.192016261337136 -8.042433597803967 0 0 0
459 7 3 0.1268 2.2826840771108516 11.550585112215497 -8.499863455030084 0 0 0
185 3 3 0.1268 -1.533760760679327 11.096814874047384 -12.515788495764507 0 0 0
386 6 3 0.1268 4.426572002924035 8.659243932785596 -10.908052149124295 0 0 1
385 6 3 0.1268 4.457921365073445 7.527627196275089 -8.685843835568075 0 0 0
118 2 3 0.1268 -1.4502039631976031 5.972287844461805 -9.926844912478316 0 0 0
383 6 2 -0.1268 3.636089468464373 5.70859075434946 -14.494690906344067 0 0 1
186 3 3 0.1268 -1.2027437112347337 12.102709405777818 -10.304912712695003 0 0 0
76 2 2 -0.1268 -0.08725637160236799 4.368660985076296 -14.09943875142689 0 0 0
425 7 2 -0.1268 2.745671030254896 11.947811593739361 -9.355112547321248 0 0 0
421 7 2 0.0265 3.169952994156895 11.790975940933214 -11.728209940806297 0 0 0
415 7 2 0.0265 3.2226137667033 11.70213579781715 -14.021849415556206 0 0 0
70 2 4 -0.3964 -0.6434309502909363 6.18588542812026 -7.691603816955529 0 0 0
87 2 1 0.3964 -0.6224862521478938 4.982941820713885 -7.716535272544107 0 0 0
389 6 3 0.1268 2.106051588294255 7.7735174513274945 -7.803687724094111 0 0 0
456 7 3 0.1268 4.5764417421090995 10.288546865302349 -14.888677545216646 0 0 0
936 14 3 0.1268 9.426921829485334 4.354779750887568 -11.019138632354645 0 0 0
628 10 2 0 6.798216840506351 4.370528022155559 -9.681285874291618 0 0 0
626 10 2 -0.1268 6.515397892703678 4.50608887417234 -12.10007835822908 0 0 0
620 10 2 -0.1268 7.1878520703146975 4.4333991176720176 -14.892632036811005 0 0 0
657 10 3 0.1268 7.902561417043394 4.911399926760604 -14.152714439872444 0 0 0
934 14 3 0.1268 11.117021937455133 9.047645477696452 -10.329711237947283 0 0 0
661 10 3 0.1268 6.1919598604601696 5.080684276924096 -12.971995928985983 0 0 0
627 10 2 -0.1268 6.500161109955103 5.075530501480301 -10.85057842972517 0 0 0
662 10 3 0.1268 6.316389276466085 6.179334961846479 -10.821473303183593 0 0 0
885 14 5 -0.053 10.525194507236469 5.348194169303801 -13.156150709450422 0 0 0
897 14 2 0.0265 10.447627985061612 6.060852180962158 -12.013360565147583 0 0 0
901 14 2 -0.1268 9.986309381584277 5.910061273085807 -9.636618532937408 0 0 0
902 14 2 -0.1268 9.903119210738298 5.37131884009715 -10.876080883501896 0 0 0
732 11 3 0.1268 7.922480852766306 7.613161171001249 -10.884180903510973 0 0 0
898 14 2 -0.1268 10.972163469872536 7.356196952987872 -11.770462794964217 0 0 0
899 14 2 -0.1268 10.952674656897448 7.9594490587271345 -10.57197833695154 0 0 0
900 14 2 0 10.490722536787333 7.1985974004270314 -9.479328389564236 0 0 0
698 11 2 -0.1268 7.572247078224596 8.66495313188603 -10.880505361094967 0 0 0
697 11 2 -0.1268 7.543702689612223 9.308694283323998 -9.680538762423314 0 0 0
696 11 2 0 7.0093356336243495 10.589092340833341 -9.536664942948143 0 0 0
694 11 2 -0.1268 6.396854512852132 10.559433330269208 -11.90087126111889 0 0 0
693 11 2 0.0265 7.015212958118639 9.32151212493788 -12.039535137098158 0 0 0
681 11 5 -0.053 6.896586380375716 8.623891248006291 -13.257991625244047 0 0 0
1000 15 3 0.1268 9.130641394113686 10.880222643914895 -10.4064295596615 0 0 0
729 11 3 0.1268 5.992387024418832 11.102949760305341 -12.730235379343883 0 0 0
695 11 2 -0.1268 6.434819677897272 11.167115335492008 -10.69977908566625 0 0 0
725 11 3 0.1268 7.633245755669602 11.384156719660016 -13.87255170470639 0 0 0
935 14 3 0.1268 9.587117781104164 5.390936366977307 -8.785292522494277 0 0 0
731 11 3 0.1268 7.967906478519767 8.771699877119243 -8.834643422940534 0 0 0
903 14 1 0.3964 10.352607817593977 7.938037281816838 -8.160551722837205 0 0 0
886 14 4 -0.3964 10.264206475832864 9.125649929773791 -8.156049899092766 0 0 0
929 14 3 0.1268 9.510610380411338 7.919649718714835 -13.682682622629343 0 0 0
631 10 1 0.3964 6.891869905068731 5.126482052737122 -8.35799352660969 0 0 0
614 10 4 -0.3964 6.96792267289776 6.326157334637681 -8.415218724184097 0 0 0
699 11 1 0.3964 6.874470415020834 11.235288846149789 -8.160159816539352 0 0 0
953 15 5 -0.053 10.585588461793142 11.820464908813431 -8.297554412114653 0 0 0
964 15 2 -0.1268 9.737413407007514 11.882511588978788 -10.514100830640952 0 0 0
1019 15 3 0.1268 10.933355028671638 11.972814048886855 -13.522238782606166 0 0 1
933 14 3 0.1268 11.334708117314236 7.924266808323734 -12.649873160194304 0 0 0
730 11 3 0.1268 6.060780710885236 12.232814183064496 -10.670031184041699 0 0 0
891 14 2 0.0265 10.356341311461604 5.957501032140099 -14.406920136241574 0 0 0
937 14 3 0.1268 11.42215899129265 5.510377745076486 -7.624422512705585 0 0 0
892 14 2 -0.1268 9.801308206690043 7.263008541361101 -14.50039537719844 0 0 0
687 11 2 0.0265 6.949827002126305 9.29240269277576 -14.411744393323286 0 0 0
999 15 3 0.1268 9.112455409096409 11.863615317765209 -12.506860307937462 0 0 1
688 11 2 -0.1268 7.363199428291084 10.612076426632633 -14.640101216556333 0 0 0
733 11 3 0.1268 6.109460678065087 8.488191563481012 -7.541784729254748 0 0 0
138 3 4 -0.3964 -0.2827848953633416 12.412069529883842 -8.11977776063457 0 0 0
416 7 2 -0.1268 2.4553064949754706 12.909359945418919 -14.216090530644756 0 0 0
495 8 1 0.3964 3.4607398009013357 19.950343978728768 -8.035149862728172 0 0 0
521 8 3 0.1268 2.0954959397949304 19.746358325339386 -13.624333239596798 0 0 0
254 4 3 0.1268 -1.4314994397637948 18.37697236936586 -10.508814352602617 0 0 0
491 8 2 -0.1268 3.777110861749339 19.881992547843147 -10.507100474201923 0 0 0
525 8 3 0.1268 4.0736693922344 19.79557277312218 -12.569214152880587 0 0 0
52 1 3 0.1268 0.6255317940945879 20.372915249295403 -10.530783332848848 0 -1 0
256 4 3 0.1268 0.31822518266172706 13.744161022033579 -10.827864245375359 0 0 0
205 4 5 -0.053 -0.635172811057769 14.633987103268991 -13.213911642093045 0 0 0
217 4 2 0.0265 -0.6739008187121585 15.348655386610075 -11.999974029550156 0 0 0
219 4 2 -0.1268 -1.023118800402512 17.37396811556127 -10.695399404338428 0 0 0
220 4 2 0 -0.423650804936732 16.74172241092881 -9.576131364064949 0 0 0
221 4 2 -0.1268 0.12784029113850837 15.45576422726572 -9.652726092433172 0 0 0
222 4 2 -0.1268 -0.11841678826418711 14.746208498094854 -10.87424454182809 0 0 0
528 8 3 0.1268 2.0857913700980246 16.39761813667311 -10.935482240286113 0 0 0
422 7 2 -0.1268 3.7410184337946033 13.05281775816258 -11.659252175933183 0 0 0
423 7 2 -0.1268 3.7683013443648568 13.869100260824998 -10.53501809313763 0 0 0
424 7 2 0 3.387866997098321 13.249163691614333 -9.33749444577656 0 0 0
453 7 3 0.1268 1.9692148013536697 13.31250262644444 -13.277079900319256 0 0 0
489 8 2 0.0265 3.0947966310475516 17.96625505386244 -11.840394746578815 0 0 0
490 8 2 -0.1268 3.643870995972822 19.215056711811073 -11.716079392458942 0 0 0
492 8 2 0 3.368518884890853 19.20943948768113 -9.35561542078431 0 0 0
493 8 2 -0.1268 2.804792563032704 17.91806883956682 -9.456082894534855 0 0 0
494 8 2 -0.1268 2.650730151989313 17.290898455557375 -10.706782909455203 0 0 0
218 4 2 -0.1268 -1.0815632776289992 16.691681463170227 -11.904098269794474 0 0 0
477 8 5 -0.053 3.1146731648052413 17.342501745667555 -13.09231217231321 0 0 0
255 4 3 0.1268 0.7114311520922256 15.039416717679492 -8.818505912051611 0 0 0
527 8 3 0.1268 2.4787638731855157 17.391788613125748 -8.542570403551881 0 0 0
249 4 3 0.1268 0.5740793017891828 16.904434412046058 -13.706479604908946 0 0 0
458 7 3 0.1268 4.091063422265003 14.896960872784424 -10.573908804309564 0 0 0
206 4 4 -0.3964 -0.05044501423580039 18.72659358350416 -8.28947485914767 0 0 0
457 7 3 0.1268 4.041107557727178 13.486740164705589 -12.623766790895353 0 0 0
427 7 1 0.3964 3.3950295041375567 14.028733726828472 -8.090768479718015 0 0 0
223 4 1 0.3964 -0.2274992540310894 17.480160136463773 -8.310587633690414 0 0 0
211 4 2 0.0265 -0.5639052695792939 15.247569002943804 -14.47023446699701 0 0 0
483 8 2 0.0265 3.187899268815743 18.025819776352265 -14.307159107086516 0 0 0
253 4 3 0.1268 -1.545314631554247 17.197760814701347 -12.825936353618587 0 0 0
410 7 4 -0.3964 3.3822769098470564 15.240878873968141 -8.19122758268368 0 0 0
212 4 2 -0.1268 0.17653242345563624 16.382159730267794 -14.624710448467257 0 0 0
484 8 2 -0.1268 2.55017322974538 19.250743128143476 -14.478616508558792 0 0 0
257 4 3 0.1268 -1.150202999226896 15.026457638465823 -7.828093702404587 0 0 0
48 1 3 0.1268 -1.1038087893538735 20.111957666276894 -14.961341467442352 0 -1 0
562 9 2 -0.1268 7.0447052286997245 20.525671088144577 -11.21498475197141 0 -1 0
998 15 3 0.1268 11.002321372916217 15.513873936722197 -11.110117901291922 0 0 1
682 11 4 -0.3964 6.666736510228654 12.427946741958129 -8.02650532376791 0 0 0
796 12 3 0.1268 5.6212354888058735 13.678008111592133 -14.617816356001637 0 0 0
1024 16 5 -0.053 10.724516830525879 20.565720042811883 -13.312826040407423 0 0 1
1029 16 2 -0.1268 11.251881310152026 20.17235723155742 -10.96486071017549 0 0 1
1069 16 3 0.1268 9.295391395889835 19.853815150711135 -8.183545054279309 0 0 0
995 15 2 -0.1268 10.687969441276548 12.443032041092996 -14.459995044716562 0 0 1
963 15 2 -0.1268 9.525843155417277 12.514215076969586 -11.73573624062228 0 0 1
959 15 2 0.0265 10.333125915841618 12.539274323446621 -9.478578233547996 0 0 0
997 15 3 0.1268 11.411039731350005 14.277788662393244 -8.87901510793889 0 0 0
1087 16 3 0.1268 11.930535013775227 18.170262381304795 -13.808271089902112 0 0 1
798 12 3 0.1268 5.886573882673469 18.405549595188937 -10.209550008369122 0 0 0
797 12 3 0.1268 5.80554263814833 17.089625333108224 -12.450661481067566 0 0 0
596 9 3 0.1268 7.272036342066837 19.471660976304385 -11.42843228120403 0 -1 0
1030 16 2 0.0265 10.651374840242037 19.772638686320562 -12.188237124041352 0 0 1
749 12 5 -0.053 6.9506105164999035 14.682506000954548 -12.645419677878156 0 0 0
1067 16 3 0.1268 9.394965093878303 18.113814134177403 -13.036289834849171 0 0 1
1031 16 2 -0.1268 9.961344703127388 18.513415779451805 -12.150416157997391 0 0 1
961 15 2 -0.1268 10.784522701550317 14.41920497042542 -10.908286090590744 0 0 1
800 12 3 0.1268 7.557368689040668 13.735257699620236 -10.343011467058476 0 0 0
799 12 3 0.1268 7.46589761917196 14.769166876167555 -8.238092549057232 0 0 0
761 12 2 0.0265 6.831685320251864 15.379409835164966 -11.510237338003359 0 0 0
762 12 2 -0.1268 6.268739320695117 16.642369485839723 -11.47396505125858 0 0 0
763 12 2 -0.1268 6.290650487962532 17.338093583105362 -10.278650046697448 0 0 0
764 12 2 0 6.621773009666777 16.634090686274966 -9.031615970414013 0 0 0
765 12 2 -0.1268 7.031738830982238 15.282511609452209 -9.105004337502404 0 0 0
766 12 2 -0.1268 7.186250272708218 14.719655213334795 -10.35250994142204 0 0 0
1068 16 3 0.1268 9.381602218338507 16.740978024747143 -11.025259300217032 0 0 0
960 15 2 -0.1268 10.901792416702175 13.787310515402622 -9.700979032071515 0 0 0
1027 16 2 0.0265 10.42858957066179 18.199322593442766 -9.779441106156593 0 0 0
1028 16 2 -0.1268 11.085400308432376 19.43988194637337 -9.829876961732609 0 0 0
1032 16 2 -0.1268 9.908499342680727 17.750298449161797 -10.995049966170757 0 0 0
962 15 2 0.0265 10.061142280413202 13.769432200717672 -11.988200451429252 0 0 1
793 12 3 0.1268 8.086937182188805 17.095807080374655 -13.36205637020666 0 0 0
956 15 5 -0.053 10.018604974510636 14.435834330299878 -13.1837771957283 0 0 1
1021 16 5 -0.053 10.306303713208347 17.45319488323897 -8.629105793376553 0 0 0
755 12 2 0.0265 6.862693400951269 15.314085344037784 -13.822074490825017 0 0 0
760 12 2 -0.1268 6.181636996972225 14.649043788893652 -14.863517397802887 0 0 0
756 12 2 -0.1268 7.552863841234949 16.526836112249505 -14.150922823490681 0 0 0
767 12 1 0.3964 6.681546772528737 17.32981275353 -7.672641689532902 0 0 0
750 12 4 -0.3964 6.7338283445599 18.540392201944904 -7.684285730669927 0 0 0
1062 16 2 0.0265 10.764328722356705 19.80117554891133 -14.435506906733835 0 0 1
994 15 2 0.0265 10.096024479563704 13.734741967829857 -14.370307827395306 0 0 1
1065 16 3 0.1268 11.451863052151712 19.83720781561111 -8.863865358058518 0 0 0
1001 15 3 0.1268 9.421178235911183 14.136860389784422 -7.728048209638639 0 0 0
1063 16 2 -0.1268 11.434616577804295 18.593727435564688 -14.685355313769952 0 0 1
121 2 3 0.1268 -1.9904948892577332 2.472727072230273 -7.047453933380683 0 0 0
535 8 3 0.1268 4.378407081137287 -3.4442883426492177 -0.40707726142826495 0 1 0
53 1 3 0.1268 -1.169294863317776 -3.4216988925104475 -7.320747763730088 0 0 0
285 5 2 0.0265 3.303620555296871 -0.11912686426757668 -7.077014913950019 0 0 0
28 1 2 -0.1268 -1.217946000192745 -1.5397754796334024 -0.35270359539537033 0 0 0
286 5 2 -0.1268 2.6504570670580856 1.1136364884326637 -6.9383766145308385 0 0 0
57 1 3 0.1268 -1.634821091386088 -1.695196420162294 -2.4804690359804997 0 0 0
328 5 3 0.1268 3.91755895459354 2.9857147315380193 -0.8744127835128435 0 0 0
297 5 2 -0.1268 3.719157503821065 1.9338413105418653 -0.7863110715125838 0 0 0
20 1 2 0 -0.5350932952277441 -1.4917228196559797 -6.5533758866770135 0 0 0
21 1 2 -0.1268 -0.8487548085474872 -2.8591386828818384 -6.438010470559581 0 0 0
287 5 2 -0.1268 2.7304458613193674 1.7965777309299336 -5.758857453821811 0 0 0
290 5 2 -0.1268 3.9215761232379016 -0.7468611606302886 -5.937647575147482 0 0 0
322 5 3 0.1268 2.324614588613076 2.810799036684142 -5.705532071041871 0 0 0
288 5 2 0 3.2522406620473925 1.1697776757042098 -4.585994605299248 0 0 0
289 5 2 -0.1268 3.91171840403 -0.08204376373615929 -4.7085218200481656 0 0 0
94 2 2 0.0265 -0.5930064530224572 2.7170684712382664 -1.5004761697671327 0 0 0
91 2 2 0.0265 -0.5383936521526329 2.870560140482694 -3.971630063335688 0 0 0
90 2 2 -0.1268 -1.2261453960884308 2.3922388197696014 -5.090003857018733 0 0 0
89 2 2 -0.1268 -1.285873821470979 2.9765522161575166 -6.334931133577715 0 0 0
71 2 5 -0.053 -0.5893235300186965 2.1600760778543995 -2.7687135537358003 0 0 0
56 1 3 0.1268 0.29166113587717035 0.18338220312714615 -5.244368606152943 0 0 0
55 1 3 0.1268 0.2647969671465571 -1.08685639250313 -3.280325232546179 0 0 0
27 1 2 -0.1268 -1.025574505446597 -2.0291534137586043 -1.617797631529239 0 0 0
26 1 2 0.0265 -0.28771653649202245 -3.178940081399209 -1.8147317356439867 0 0 0
25 1 2 -0.1268 -0.062420418406115896 -0.9287521973648443 -5.390850365365237 0 0 0
24 1 2 -0.1268 0.04903470766043405 -1.6540355768465669 -4.195887866717021 0 0 0
23 1 2 0.0265 -0.23562641085006764 -3.0450242241056564 -4.12067955602647 0 0 0
291 5 1 0.3964 3.283640189205742 1.9471024791806375 -3.279068450593414 0 0 0
292 5 2 0 3.286715746606652 1.2256275023531904 -1.9625147710242743 0 0 0
293 5 2 -0.1268 2.8589877074307317 -0.07640736373935297 -1.783123608550012 0 0 0
325 5 3 0.1268 2.315110367826982 -0.7419080074636106 -2.4901756741109384 0 0 0
274 5 4 -0.3964 3.3052047125857404 3.1719931026019212 -3.284622999611642 0 0 0
122 2 3 0.1268 -1.8212846278241133 1.46918750095712 -4.891020464253847 0 0 0
324 5 3 0.1268 4.749262035876416 -1.5534139822216884 -5.891745067631604 0 0 0
323 5 3 0.1268 4.477527525478198 -0.3840398396561042 -3.843443845292022 0 0 0
532 8 3 0.1268 2.7258253805555652 -3.610273526621278 -5.667994593407849 0 1 0
22 1 2 -0.1268 -0.7012647170539164 -3.6544180502980663 -5.316315919128826 0 0 0
3 1 5 -0.053 -0.021173985639665105 -3.7794323694663006 -3.012012761068462 0 0 0
31 1 2 -0.1268 0.3475633755641869 -3.7050174849428945 -0.6916300164938356 0 0 0
294 5 2 -0.1268 2.8598894595952657 -0.6580011540344275 -0.5328419301986269 0 0 0
326 5 3 0.1268 2.304393505132139 -1.6518399991812576 -0.380518371377935 0 0 0
394 6 3 0.1268 1.8876265732260524 4.117041573034939 -0.7606724060551269 0 0 0
95 2 2 -0.1268 -1.052486065656998 4.023797278651159 -1.3614732996401493 0 0 0
128 2 3 0.1268 0.17994325829958235 0.9890148340130986 -0.42392897319124145 0 0 0
99 2 2 -0.1268 -0.19825351071628106 2.001689607290361 -0.37532081902171477 0 0 0
58 1 3 0.1268 -1.9227187185618348 -0.7886958922312068 -0.09739529760482135 0 0 0
633 10 2 -0.1268 6.431742048296165 3.0726777973986454 -6.905869954082439 0 0 0
564 9 2 0 7.078085117741006 -2.030785253416938 -7.234454265850079 0 0 0
572 9 2 -0.1268 6.52350592190367 -1.4239092455465268 -0.6446804989992128 0 0 0
836 13 2 0 10.330064113976901 1.4283804964618403 -6.9858925816081285 0 0 0
876 13 3 0.1268 11.498262077586332 1.9911869918714906 -2.848271642585612 0 0 0
837 13 2 -0.1268 10.836870545514197 0.1222503311387948 -6.79287815612591 0 0 0
846 13 2 -0.1268 10.899246049905079 2.226894380253359 -0.7426923915342147 0 0 0
601 9 3 0.1268 6.206317388566264 -1.2662793709687201 -2.829622342930346 0 0 0
666 10 3 0.1268 6.2850353650460296 1.3652303136762303 -5.7479806969050955 0 0 0
565 9 2 -0.1268 6.576652686469723 -3.3484062678069275 -7.098133846572291 0 0 0
672 10 3 0.1268 7.644416324468427 1.1272959514909058 -1.2044843212468166 0 0 0
634 10 2 -0.1268 6.504569609051593 2.4211425201431425 -5.722494504096856 0 0 0
569 9 2 -0.1268 7.491054970850486 -1.3551319917842122 -6.077387752741146 0 0 0
600 9 3 0.1268 7.830787289336417 -0.32528507766731884 -6.20959476193973 0 0 0
847 13 2 -0.1268 11.017576880704572 1.55517952436906 -1.9347358559144965 0 0 0
871 13 3 0.1268 9.475334694593423 2.01633736736623 -3.7530755902030695 0 0 0
638 10 2 0.0265 6.802622746882502 2.9435170008480425 -2.064411362025103 0 0 0
635 10 2 0.0265 6.7331145224089415 3.0758215537828626 -4.49179676056225 0 0 0
615 10 5 -0.053 6.737619487498609 2.362130125720637 -3.2979616024134994 0 0 0
599 9 3 0.1268 8.005085024961371 -1.3994478854426822 -3.9395927856063064 0 0 0
571 9 2 -0.1268 6.549091184428503 -1.8896564712042778 -1.9718859975783012 0 0 0
570 9 2 0.0265 6.917640417008478 -3.2523141500088735 -2.2240733412677383 0 0 0
568 9 2 -0.1268 7.534274953019706 -1.9355334143096083 -4.821304664216575 0 0 0