LAMMPS data file via write_data, version 27 Jun 2024, timestep = 1000000, units = real

3024 atoms
5 atom types
3024 bonds
5 bond types
5616 angles
8 angle types
9072 dihedrals
8 dihedral types
3456 impropers
5 improper types

0.45995102817917477 31.381160305819066 xlo xhi
0.7888403389375789 30.671076833062166 ylo yhi
0.8277473549363812 33.85289895406348 zlo zhi
0.11474011490906601 0 0.7495067982706874 xy xz yz

Atom Type Labels

1 c1
2 c2
3 ct
4 hpan
5 nt

Bond Type Labels

1 c1-c2
2 c1-ct
3 c1-hpan
4 c2-hpan
5 ct-nt

Angle Type Labels

1 c1-c2-c1
2 c1-c2-hpan
3 c1-ct-nt
4 c2-c1-c2
5 c2-c1-ct
6 c2-c1-hpan
7 ct-c1-hpan
8 hpan-c2-hpan

Dihedral Type Labels

1 hpan-c2-c1-ct
2 c2-c1-c2-hpan
3 hpan-c1-c2-hpan
4 hpan-c1-ct-nt
5 c2-c1-ct-nt
6 c1-c2-c1-c2
7 c1-c2-c1-ct
8 c1-c2-c1-hpan

Improper Type Labels

1 c1-c2-c1-hpan-nb!=3
2 c1-c2-hpan-hpan-nb!=3
3 c2-c1-c2-ct-nb!=3
4 c2-c1-c2-hpan-nb!=3
5 c2-c1-ct-hpan-nb!=3

Masses

1 12.01115
2 12.01115
3 12.01115
4 1.00797
5 14.0067

Pair Coeffs # lj/class2/coul/long

1 0.054 4.01
2 0.054 4.01
3 0.064 4.01
4 0.02 2.3
5 0.065 3.57

Bond Coeffs # morse

1 82.6961 2 1.53
2 82.6961 1.5 1.42
3 98.2315 2 1.101
4 98.2315 2 1.101
5 211.998 1.6 1.158

Angle Coeffs # class2xe

1 112.67 39.516 -7.443 -9.5583
2 110.77 41.453 -10.604 5.129
3 180 200 0 0
4 112.67 39.516 -7.443 -9.5583
5 109.5 46 0 0
6 110.77 41.453 -10.604 5.129
7 109.5 42 0 0
8 107.66 39.641 -12.921 -2.4318

BondBond Coeffs

1 82.6961 0 1.53 1.53
2 90.4638 0.136826 1.53 1.101
3 147.347 0 1.42 1.158
4 82.6961 0 1.53 1.53
5 82.6961 0 1.53 1.42
6 90.4638 0.136826 1.53 1.101
7 90.4638 0 1.42 1.101
8 98.2315 0.164736 1.101 1.101

BondAngle Coeffs

1 82.6961 82.6961 0.220151 0.220151 1.53 1.53
2 82.6961 98.2315 0.354237 0.241108 1.53 1.101
3 82.6961 211.998 0 0 1.42 1.158
4 82.6961 82.6961 0.220151 0.220151 1.53 1.53
5 82.6961 82.6961 0 0 1.53 1.42
6 82.6961 98.2315 0.354237 0.241108 1.53 1.101
7 82.6961 98.2315 0 0 1.42 1.101
8 98.2315 98.2315 0.303553 0.303553 1.101 1.101

Dihedral Coeffs # class2xe

1 0 0 0.0316 0 -0.1681 0
2 0 0 0.0316 0 -0.1681 0
3 -0.1432 0 0.0617 0 -0.1083 0
4 0 0 0 0 0 0
5 0 0 0 0 0 0
6 0 0 0.0514 0 -0.143 0
7 0 0 0.0514 0 -0.143 0
8 0 0 0.0316 0 -0.1681 0

AngleAngleTorsion Coeffs

1 0 110.77 109.5
2 -16.164 112.67 110.77
3 -12.564 110.77 110.77
4 0 109.5 180
5 0 109.5 180
6 -22.045 112.67 112.67
7 0 112.67 109.5
8 -16.164 112.67 110.77

EndBondTorsion Coeffs

1 2 1.5 0 0 0 0 0 0 1.101 1.42
2 2 2 0.2486 0.2422 -0.0925 0.0814 0.0591 0.2219 1.53 1.101
3 2 2 0.213 0.312 0.0777 0.213 0.312 0.0777 1.101 1.101
4 2 1.6 0 0 0 0 0 0 1.101 1.158
5 2 1.6 0 0 0 0 0 0 1.53 1.158
6 2 2 -0.0732 0 0 -0.0732 0 0 1.53 1.53
7 2 1.5 0 0 0 0 0 0 1.53 1.42
8 2 2 0.2486 0.2422 -0.0925 0.0814 0.0591 0.2219 1.53 1.101

MiddleBondTorsion Coeffs

1 2 0 0 0 1.53
2 2 -14.879 -3.6581 -0.3138 1.53
3 2 -14.261 -0.5322 -0.4864 1.53
4 1.5 0 0 0 1.42
5 1.5 0 0 0 1.42
6 2 -17.787 -7.1877 0 1.53
7 2 0 0 0 1.53
8 2 -14.879 -3.6581 -0.3138 1.53

BondBond13 Coeffs

1 90.4638 0 1.101 1.42
2 90.4638 0 1.53 1.101
3 98.2315 0 1.101 1.101
4 155.115 0 1.101 1.158
5 147.347 0 1.53 1.158
6 82.6961 0 1.53 1.53
7 82.6961 0 1.53 1.42
8 90.4638 0 1.53 1.101

AngleTorsion Coeffs

1 0 0 0 0 0 0 110.77 109.5
2 -0.2454 0 -0.1136 0.3113 0.4516 -0.1988 112.67 110.77
3 -0.8085 0.5569 -0.2466 -0.8085 0.5569 -0.2466 110.77 110.77
4 0 0 0 0 0 0 109.5 180
5 0 0 0 0 0 0 109.5 180
6 0.3886 -0.3139 0.1389 0.3886 -0.3139 0.1389 112.67 112.67
7 0 0 0 0 0 0 112.67 109.5
8 -0.2454 0 -0.1136 0.3113 0.4516 -0.1988 112.67 110.77

Improper Coeffs # class2

1 0 0
2 0 0
3 0 0
4 0 0
5 0 0

AngleAngle Coeffs

1 -1.3199 -1.3199 0.1184 112.67 110.77 110.77
2 0.2738 -0.4825 0.2738 110.77 110.77 107.66
3 0 0 0 112.67 109.5 109.5
4 -1.3199 -1.3199 0.1184 112.67 110.77 110.77
5 0 0 0 109.5 109.5 110.77

Atoms # full

195 7 1 0.106 4.97136911964022 3.210048992758492 4.498552903804271 0 0 0
196 7 4 0.053 4.886177933922745 4.185798967587239 4.060469681568051 0 0 0
197 7 3 0.271 5.055912975400484 2.406614813286294 3.3670511833392642 0 0 0
843 7 1 0.106 2.3123226792837484 3.291184288390221 4.582214578086047 0 0 0
844 7 4 0.053 2.430751371962894 2.7929185586576053 3.583687205945216 0 0 0
845 7 3 0.271 2.108768283685854 4.684165759319928 4.479722980383942 0 0 0
846 7 5 -0.43 2.0360533283032636 5.87384964230315 4.426021665037076 0 0 0
1095 7 1 0.106 7.568057968816345 3.2326306112495256 4.556809353801189 0 0 0
1096 7 4 0.053 7.43034972526177 2.8410637582629064 3.536990273589947 0 0 0
1097 7 3 0.271 7.716884530786717 4.587566994691274 4.334221712828004 0 0 0
1098 7 5 -0.43 7.845962654723511 5.716828024160279 4.107850864726066 0 0 0
1124 9 4 0.053 7.605044859401925 6.873973629124249 7.372322956254563 0 0 0
37 7 2 -0.106 1.0491714803773444 2.739758251704586 5.381033872881427 0 0 0
193 7 2 -0.106 6.245552060863519 2.9125328164822584 5.316735221272228 0 0 0
194 7 4 0.053 6.235468324144671 1.8762694724681797 5.719080445899509 0 0 0
199 7 4 0.053 6.1591378003832284 3.543892707435439 6.227940754775002 0 0 0
841 7 2 -0.106 3.6592345327554865 2.9190707731220025 5.2999932437066395 0 0 0
842 7 4 0.053 3.6051915802089827 1.8053196542982068 5.502581897786397 0 0 0
847 7 4 0.053 3.6905859263765306 3.3565795822012805 6.296892219953137 0 0 0
225 9 3 0.271 5.004643223099666 6.160001961318997 7.280945886360223 0 0 0
226 9 5 -0.43 5.118286416878996 5.027769454505385 7.230565033383775 0 0 0
872 9 4 0.053 2.1260930079677838 6.814711979600855 6.688428662825599 0 0 0
223 9 1 0.106 4.847758835731906 7.60389115060272 7.347374747181266 0 0 0
787 3 1 0.106 2.1963117605312696 7.788082726502135 1.4563025168736985 0 0 0
1039 3 1 0.106 7.293358175776762 8.0450297019723 2.0556335998240245 0 0 0
141 3 3 0.271 4.6818398924007445 6.419676026647116 2.0243991239931765 0 0 0
139 3 1 0.106 4.713811320028292 7.798509515933515 2.0622096771062424 0 0 0
38 7 4 0.053 1.3117466244505338 1.6263921944009527 5.4728928036152835 0 0 0
198 7 5 -0.43 5.140099548542243 1.6711271163000392 2.4136094638104826 0 0 0
786 3 4 0.053 2.942776564749308 7.978506918676047 3.421484206087994 0 0 0
1123 9 1 0.106 7.475967781686895 7.938771044265458 7.568490652107375 0 0 0
138 3 4 0.053 5.913050639514768 7.874834332486873 3.8444036323600135 0 0 0
14 3 4 0.053 0.87918818942607 7.860721671416025 3.210523516241688 0 0 0
39 7 4 0.053 1.0494523112594614 3.125403279051972 6.418221734767079 0 0 0
142 3 5 -0.43 4.614942749141947 5.247710360801573 1.9525186896940447 0 0 0
1040 3 4 0.053 7.37563113795956 7.00088701740845 1.8838824714961666 0 0 0
282 13 5 -0.43 4.727102463687292 1.2990198331438765 7.5160164608556785 0 0 0
13 3 2 -0.106 0.8248335915394274 8.13939260982189 2.119331120752225 0 0 0
785 3 2 -0.106 3.2783145753315805 8.344783859268448 2.419020825835788 0 0 0
871 9 1 0.106 2.1909395001509893 7.870621841947252 7.038648828952697 0 0 0
788 3 4 0.053 2.28773157711047 6.6832711275522225 1.1737368719876857 0 0 0
224 9 4 0.053 4.875073484442521 7.9124166284236574 6.29610429302075 0 0 0
137 3 2 -0.106 5.935664166028697 8.282363669674154 2.829654113371681 0 0 0
281 13 3 0.271 4.841613434339099 1.9494195684624942 8.445591271452194 0 0 0
870 9 4 0.053 3.295472008442079 7.725926188685175 8.807763139868621 0 0 0
50 9 4 0.053 1.085167936765267 7.760888534508936 8.769191752717912 0 0 0
49 9 2 -0.106 0.9147746261231958 8.189076093007156 7.784927863088074 0 0 0
869 9 2 -0.106 3.4600040281259465 8.187652885234607 7.847467566785653 0 0 0
1180 13 4 0.053 7.871942375337233 2.7379078955774823 8.744167853713481 0 0 0
221 9 2 -0.106 6.0628359291462255 8.168061710301298 8.151246138764254 0 0 0
928 13 4 0.053 2.2273548990307095 2.613704987851569 8.63328945566768 0 0 0
763 1 4 0.053 3.4913889448629556 3.2446474152351024 0.8448369811634704 0 0 0
3 1 4 0.053 0.776219820391758 3.0259508891975817 0.8430899980297732 0 0 0
140 3 4 0.053 4.726169078861358 8.121018658395496 1.0108311713355111 0 0 0
1038 3 4 0.053 8.541634411973483 8.321813994664051 3.828419085064905 0 0 0
1094 7 4 0.053 8.74187049092256 1.5638479493767892 5.517370414115116 0 0 0
1099 7 4 0.053 8.86314547689525 3.1531428279541007 6.187876454396017 0 0 0
447 7 1 0.106 10.168945373871418 2.930728947053735 4.509457749120495 0 0 0
448 7 4 0.053 10.130113119545081 3.9979540678713543 4.24535609709716 0 0 0
449 7 3 0.271 10.111628582117952 2.223592517837411 3.255696322770086 0 0 0
661 7 1 0.106 15.234973282479707 3.0287470326053016 4.910835505742995 0 0 0
662 7 4 0.053 15.131202692542548 4.0989117269587485 4.602221446941718 0 0 0
663 7 3 0.271 15.27451328435147 2.35189826103391 3.71700162659641 0 0 0
1347 7 1 0.106 12.711435412160426 3.1660984742341576 4.804466182971382 0 0 0
1348 7 4 0.053 12.796013420063222 2.745339916743758 3.8136449422517398 0 0 0
1349 7 3 0.271 12.782781901556596 4.589147276368919 4.788828723618848 0 0 0
1350 7 5 -0.43 12.883767129824953 5.749652602015051 4.79960417109357 0 0 0
445 7 2 -0.106 11.40732595956245 2.577205603194848 5.361383272748748 0 0 0
446 7 4 0.053 11.507867250799599 1.4981534377929524 5.53057684518245 0 0 0
451 7 4 0.053 11.194152920170945 3.000065706266901 6.395285317037112 0 0 0
1093 7 2 -0.106 8.845504354639845 2.620318509014697 5.240146411440704 0 0 0
1345 7 2 -0.106 13.940702124603474 2.693203450542123 5.614375545912239 0 0 0
1346 7 4 0.053 13.859898500702979 1.6237211543834547 5.800449079865208 0 0 0
1351 7 4 0.053 13.800513549411718 3.197193543048666 6.602754151053901 0 0 0
477 9 3 0.271 10.005125562019973 6.404826763332663 7.563892199325136 0 0 0
679 9 3 0.271 15.052862130954326 6.185692265456552 7.6052497135789405 0 0 0
1376 9 4 0.053 12.524958180642583 6.83292285792491 7.2742764276167176 0 0 0
478 9 5 -0.43 10.080545886194178 5.289799253319643 7.429894137086537 0 0 0
680 9 5 -0.43 15.03787504034119 5.031663305891789 7.655093576234014 0 0 0
475 9 1 0.106 9.933096587276708 7.80249294123234 7.7560898317632025 0 0 0
677 9 1 0.106 15.076396038955671 7.628119113149183 7.529527064268226 0 0 0
391 3 1 0.106 9.747803345085785 7.848433395728266 2.082192750347886 0 0 0
629 3 1 0.106 15.061202814666736 7.925886155757185 1.966263375786166 0 0 0
1291 3 1 0.106 12.457230073287345 8.035872878261632 1.9161040222322205 0 0 0
631 3 3 0.271 15.046330581596882 6.5080974962311675 1.6868159482666232 0 0 0
1292 3 4 0.053 12.477777923883147 6.930560035919926 1.55521441953025 0 0 0
1375 9 1 0.106 12.545884998871117 7.9129126280624265 7.564591449149937 0 0 0
450 7 5 -0.43 10.06611859628964 1.6524251756347392 2.324177419973325 0 0 0
1290 3 4 0.053 13.695015572638846 7.71538023908844 3.631876417988259 0 0 0
632 3 5 -0.43 15.092704850812417 5.411644057163625 1.4443652400244789 0 0 0
664 7 5 -0.43 15.214608874382243 1.7491459285587077 2.662174608559864 0 0 0
393 3 3 0.271 9.700867336369011 6.363230288717487 2.051032975316739 0 0 0
712 13 5 -0.43 15.009336292461773 1.2941848047353712 8.02470634383215 0 0 0
390 3 4 0.053 11.340967531906568 7.727271877385441 3.7007034792722737 0 0 0
534 13 5 -0.43 10.208557478979358 1.5885003400843358 7.7676309094269005 0 0 0
394 3 5 -0.43 9.596070160166233 5.222540854685756 1.9328472833334733 0 0 0
389 3 2 -0.106 11.11795407512777 8.239276390131522 2.73214713841689 0 0 0
1289 3 2 -0.106 13.75310118414771 8.309140043839033 2.745824571002544 0 0 0
1373 9 2 -0.106 13.884121247218056 8.210534335922727 8.258526875442575 0 0 0
1121 9 2 -0.106 8.624323057115662 8.19925811636596 8.490399277451193 0 0 0
678 9 4 0.053 15.0183405233992 7.765340337341107 6.453175025268927 0 0 0
711 13 3 0.271 15.054923536405736 2.034742793389543 8.919809195391554 0 0 0
533 13 3 0.271 10.199423014837265 2.212632977338404 8.738514140924671 0 0 0
476 9 4 0.053 10.037226541294336 8.323368637681282 6.7175744292544115 0 0 0
473 9 2 -0.106 11.339058490287858 8.15686803730216 8.397663635541356 0 0 0
367 1 4 0.053 11.163859277423532 3.1914393869179425 0.8750168174219711 0 0 0
1267 1 4 0.053 13.980103335836843 3.4594890761239507 0.9031978758785097 0 0 0
392 3 4 0.053 9.636412543070524 8.27225157814507 1.080219397083253 0 0 0
42 7 4 0.053 16.51784998818721 3.1347968162175683 6.718328303867297 0 0 0
202 7 1 0.106 20.334125366372064 2.914694827747249 4.376974949643165 0 0 0
203 7 4 0.053 20.22398192572937 3.9977824880237747 4.095380859494169 0 0 0
204 7 3 0.271 20.25944294681907 2.210401323744765 3.149506412365822 0 0 0
850 7 1 0.106 17.793223436987482 3.3100222152012866 4.804245425316268 0 0 0
851 7 4 0.053 17.553668191378854 2.9412835302072646 3.7951807265987036 0 0 0
852 7 3 0.271 17.766886981631252 4.7911841860322655 4.710980264460814 0 0 0
853 7 5 -0.43 17.704197304929714 5.962635214652718 4.656083194108463 0 0 0
1102 7 1 0.106 22.92885772519557 3.225575359628713 4.504566845047931 0 0 0
1103 7 4 0.053 23.04192202386789 2.8873061177309727 3.455343440981174 0 0 0
1104 7 3 0.271 22.770649684103425 4.68212222790676 4.65047754402808 0 0 0
1105 7 5 -0.43 22.653356000561615 5.798782582315716 4.752732261510772 0 0 0
40 7 2 -0.106 16.57134450618313 2.7909104252619 5.629304464199963 0 0 0
41 7 4 0.053 16.76677337486192 1.717320168898088 5.671862355674696 0 0 0
200 7 2 -0.106 21.643602613491225 2.599899479734022 5.127040810877964 0 0 0
201 7 4 0.053 21.72532000948894 1.5023020789098682 5.013588686861376 0 0 0
206 7 4 0.053 21.622233166023214 2.693519523596542 6.185362716501305 0 0 0
848 7 2 -0.106 19.14330332092851 2.6992235792213437 5.33049505740421 0 0 0
849 7 4 0.053 19.09587706593399 1.644626830327439 5.577623226858964 0 0 0
854 7 4 0.053 19.365233858119886 3.182784908959581 6.290810991960242 0 0 0
232 9 3 0.271 20.324279764994664 6.557430403464898 7.168664956990663 0 0 0
233 9 5 -0.43 20.35219471042985 5.406186678706253 7.073407013969415 0 0 0
879 9 4 0.053 17.877445011440763 7.024142859748951 7.048649006653739 0 0 0
1131 9 4 0.053 22.950007989449524 6.897018425892347 6.83943719887733 0 0 0
230 9 1 0.106 20.317191458122068 8.005632341663638 7.30292293737037 0 0 0
146 3 1 0.106 20.225615927092235 7.670357615891343 1.881158208069226 0 0 0
1046 3 1 0.106 22.735635741301472 8.058735169822715 1.7811279378294347 0 0 0
148 3 3 0.271 20.279404020143808 6.239269243180319 1.6639451340630662 0 0 0
794 3 1 0.106 17.651271334796256 7.947712423607613 1.9225472827763952 0 0 0
145 3 4 0.053 21.659601432784058 7.3357194860637955 3.36400964560037 0 0 0
205 7 5 -0.43 20.235911780316513 1.5406258631421288 2.197769926636944 0 0 0
793 3 4 0.053 19.176817821974367 7.445549232420577 3.6263229591342796 0 0 0
17 3 4 0.053 16.328024866870294 7.69079087992414 3.595705088416754 0 0 0
1047 3 4 0.053 22.838479159676965 7.040826252584805 1.3097771205194313 0 0 0
289 13 5 -0.43 20.56656216376087 1.7395253323359645 7.921274251268708 0 0 0
1130 9 1 0.106 22.90820030295599 7.965008946674196 7.108508306164285 0 0 0
795 3 4 0.053 17.619805777239733 6.874198225271045 1.7724460599006224 0 0 0
878 9 1 0.106 17.72857529041758 8.11457665031698 7.252677614032177 0 0 0
16 3 2 -0.106 16.380768157323285 8.256673014674163 2.7168456085825134 0 0 0
149 3 5 -0.43 20.27951993729971 5.087950348487968 1.4677555800877822 0 0 0
231 9 4 0.053 20.315132529300953 8.29472925930412 6.2225869381552705 0 0 0
52 9 2 -0.106 16.432715903812365 8.181612862722464 8.140203695863665 0 0 0
228 9 2 -0.106 21.657573497838733 8.305463400948014 7.982969283995734 0 0 0
144 3 2 -0.106 21.474223626667005 8.13175141568805 2.5868018978269136 0 0 0
792 3 2 -0.106 19.025435765033478 8.09454916772819 2.70775770949839 0 0 0
288 13 3 0.271 20.45894543609301 2.40866889852561 8.833117766712105 0 0 0
877 9 4 0.053 19.091563291596643 7.918315195876647 8.956448371536489 0 0 0
53 9 4 0.053 16.705382447923796 7.610188937010496 8.995031140616666 0 0 0
229 9 4 0.053 21.738089792355368 7.995769428166246 9.035669279932542 0 0 0
147 3 4 0.053 20.195783490468365 8.148919941634254 0.890533801576842 0 0 0
1101 7 4 0.053 24.09564336989356 1.689955201678043 5.5915921349123705 0 0 0
1106 7 4 0.053 24.119204384048203 3.3051907715372986 6.246135357154528 0 0 0
684 9 5 -0.43 30.62245775217935 4.879548022207087 7.3805854530582975 0 0 0
454 7 1 0.106 25.554074784132624 3.017525032169982 4.645649363865106 0 0 0
455 7 4 0.053 25.736778206307996 4.053023076002752 4.38472637148511 0 0 0
456 7 3 0.271 25.620014609442585 2.164774129951228 3.4806270644399673 0 0 0
665 7 1 0.106 30.5884509661135 2.957004416813713 4.61501747499865 0 0 0
666 7 4 0.053 30.51083247920841 4.017593216785713 4.297675987281581 0 0 0
667 7 3 0.271 30.701883948892338 2.204957783325165 3.3635258701249113 0 0 0
1354 7 1 0.106 28.074099151866065 2.985689960110327 4.843478788241628 0 0 0
1355 7 4 0.053 28.146338095241937 2.582956074212434 3.7951217024916417 0 0 0
1356 7 3 0.271 28.053706666941416 4.476365105216466 4.74651730536432 0 0 0
1357 7 5 -0.43 27.923231938575164 5.623210845988285 4.602024451827137 0 0 0
452 7 2 -0.106 26.741061975131096 2.566249747172364 5.51718422512686 0 0 0
453 7 4 0.053 26.721673827591246 1.451109981362275 5.714413146970454 0 0 0
458 7 4 0.053 26.766329525894506 2.9651467593520917 6.613983510286254 0 0 0
1100 7 2 -0.106 24.19776550337123 2.7455837404712167 5.275405495247759 0 0 0
1352 7 2 -0.106 29.391573154253436 2.428431943826971 5.504520060807636 0 0 0
1353 7 4 0.053 29.44643540118262 1.3497080745840178 5.560410409418416 0 0 0
1358 7 4 0.053 29.473504873857912 2.7784419338622053 6.558801580370805 0 0 0
484 9 3 0.271 25.334730312657392 6.256674424746586 7.516965205511101 0 0 0
485 9 5 -0.43 25.293159426177944 5.116762133340131 7.632458128385295 0 0 0
681 9 1 0.106 30.53083147744274 7.538539880260901 7.260431521356582 0 0 0
1383 9 4 0.053 27.86748926160599 6.8125079612249095 7.087840539248818 0 0 0
683 9 3 0.271 30.559942022521 6.064114594815165 7.373416765199282 0 0 0
633 3 1 0.106 30.497665146829853 7.542565768282511 1.527219711207994 0 0 0
400 3 3 0.271 25.334884310487915 6.4993297999747375 1.9620292434424702 0 0 0
398 3 1 0.106 25.289382023364666 7.854287544565334 1.9649571277008113 0 0 0
1298 3 1 0.106 27.859757761133316 8.006851107731784 1.5930730279125944 0 0 0
716 13 5 -0.43 30.277979228970437 1.1420163926022346 7.870433660742392 0 0 0
668 7 5 -0.43 30.817710394939084 1.6157497780090528 2.3785110296777026 0 0 0
482 9 1 0.106 25.42797733820037 7.672011871613892 7.424444477420544 0 0 0
541 13 5 -0.43 25.359794261131064 1.349532665006724 8.208871105931875 0 0 0
635 3 3 0.271 30.442850095965582 6.080919094778555 1.6068688711204133 0 0 0
397 3 4 0.053 26.821821271203262 7.805357248601779 3.4889914906424533 0 0 0
1382 9 1 0.106 28.001483395914732 7.867690669853339 7.332565869130531 0 0 0
401 3 5 -0.43 25.343775764056915 5.338299034746915 2.037066507889948 0 0 0
1299 3 4 0.053 27.728053849343333 6.888107756191561 1.249195541154243 0 0 0
1045 3 4 0.053 23.917918600009934 7.977372585162926 3.5672875125574857 0 0 0
636 3 5 -0.43 30.453885340614463 4.903576302962544 1.6827954493849018 0 0 0
457 7 5 -0.43 25.65763066779791 1.486876753967644 2.4941208394158774 0 0 0
682 9 4 0.053 30.412306283010402 7.676327319605398 6.188089820465607 0 0 0
483 9 4 0.053 25.606355609462113 7.737205887608357 6.324552861241419 0 0 0
1297 3 4 0.053 29.211493731641696 7.771906228936245 3.2999312016271505 0 0 0
396 3 2 -0.106 26.649885058722703 8.287165602023506 2.50760678185743 0 0 0
1296 3 2 -0.106 29.253782743694288 8.11911924737969 2.2538736928960423 0 0 0
1380 9 2 -0.106 29.327361410169054 8.067063466780073 8.04439312525351 0 0 0
1128 9 2 -0.106 24.097194026062752 8.268715450801356 8.004018509156683 0 0 0
480 9 2 -0.106 26.682227579140843 8.2287285217582 8.116562052411972 0 0 0
1129 9 4 0.053 24.05927337512633 7.822218535115446 9.024192243373822 0 0 0
1044 3 2 -0.106 24.0247561634798 8.390360046266519 2.5437649668707163 0 0 0
715 13 3 0.271 30.45379047088789 1.9153539110349915 8.7505930437625 0 0 0
1381 9 4 0.053 29.368965950189647 7.595800853302384 9.070657261324993 0 0 0
374 1 4 0.053 26.718262826003816 3.183768018158046 0.8834635110183472 0 0 0
1022 1 4 0.053 23.947134353226232 3.118431994292797 0.9393463549102498 0 0 0
399 3 4 0.053 25.36719676613894 8.062876215995828 0.8499861491245831 0 0 0
1125 9 3 0.271 7.471236365227023 8.839331317224577 6.460192188465632 0 0 0
873 9 3 0.271 2.090225688411462 8.673556058248977 5.7714816195434695 0 0 0
25 5 2 -0.106 0.9709556230746376 12.747832671302048 5.569887697051266 0 0 0
26 5 4 0.053 0.9683193837934524 11.712609841128783 5.909626440463919 0 0 0
143 3 4 0.053 5.923439195736436 9.380910631950492 2.9374923410920335 0 0 0
165 5 2 -0.106 6.148022068480881 12.81824620876964 5.70526646779374 0 0 0
166 5 4 0.053 6.244651488956236 11.727007415386073 5.791049960850094 0 0 0
167 5 1 0.106 4.830296668555259 13.000463079608972 4.955540814958242 0 0 0
168 5 4 0.053 4.689283941840712 14.103303375705645 4.821663417205569 0 0 0
169 5 3 0.271 4.858865397575762 12.318939531303363 3.647165651232775 0 0 0
170 5 5 -0.43 4.9197863121641685 11.689530385689602 2.6175754144933903 0 0 0
171 5 4 0.053 6.0807973970994205 13.314361325665086 6.6645426697370755 0 0 0
254 11 5 -0.43 4.993281769603518 11.304402737850722 7.977550645589621 0 0 0
791 3 4 0.053 3.0869529249772167 9.469923421540292 2.4593818347875764 0 0 0
813 5 2 -0.106 3.4858912608228674 12.7067736801733 5.7230599847305506 0 0 0
814 5 4 0.053 3.438581373819542 11.562464317203313 5.83380303726719 0 0 0
815 5 1 0.106 2.2380206892720764 13.24495420083378 4.948969451469911 0 0 0
816 5 4 0.053 2.3623027929439253 12.813008130311541 3.949607872574114 0 0 0
817 5 3 0.271 2.254332430368807 14.55638770724472 4.94029324333778 0 0 0
819 5 4 0.053 3.6757343622229963 13.078219946974455 6.7767448389971 0 0 0
874 9 5 -0.43 2.0245998566764127 9.338672465442954 4.851636865649663 0 0 0
1067 5 1 0.106 7.419367541693333 13.370140308257819 5.04750577171828 0 0 0
1068 5 4 0.053 7.396894945561782 13.08111430935013 3.9541792447145707 0 0 0
1069 5 3 0.271 7.379646498761856 14.798269000982682 4.976554889537474 0 0 0
1126 9 5 -0.43 7.552699652775075 9.494884136224803 5.523778452102895 0 0 0
212 8 5 -0.43 4.83081746632444 14.903328969394439 7.632695412387437 0 0 0
875 9 4 0.053 3.523790741426246 9.305424985598858 7.965006454366413 0 0 0
227 9 4 0.053 5.817482422552396 9.24813321284523 8.263360407360516 0 0 0
51 9 4 0.053 0.7564009342022331 9.250788160043154 7.954031499530074 0 0 0
128 2 5 -0.43 4.663066376082699 15.051208509883937 1.598181617566053 0 0 0
15 3 4 0.053 0.7392562840433718 9.30277903801061 2.1209244288476916 0 0 0
818 5 5 -0.43 2.280963426170689 15.747075074979104 4.937504317398856 0 0 0
27 5 4 0.053 0.6661342975582192 13.297930386295914 6.496883861335525 0 0 0
1070 5 5 -0.43 7.343064138711967 15.912492598361029 4.84241748829559 0 0 0
253 11 3 0.271 4.902496568610623 11.958064962684917 8.917117686737793 0 0 0
211 8 3 0.271 4.786309131472336 16.059483183122033 7.539981978574353 0 0 0
1037 3 2 -0.106 8.524562940237113 8.544121545994372 2.7746765648433165 0 0 0
630 3 4 0.053 15.055964998725807 8.506176953538441 1.0208561484010488 0 0 0
1377 9 3 0.271 12.514526890932828 8.570002373167718 6.3517835685513 0 0 0
1066 5 4 0.053 8.69293533473489 11.706610842077035 5.775569894252774 0 0 0
1378 9 5 -0.43 12.520109183569678 9.061326409536875 5.283219389186914 0 0 0
395 3 4 0.053 11.221348630355875 9.269561542905837 3.0731605073442143 0 0 0
417 5 2 -0.106 11.30195822126696 12.844662260957014 5.517150348389864 0 0 0
418 5 4 0.053 11.475091513668982 11.79363087910114 5.622132274804319 0 0 0
419 5 1 0.106 10.006065719126717 13.077571279013043 4.75046953073365 0 0 0
420 5 4 0.053 10.014014118760917 14.128131661605241 4.424730616800459 0 0 0
421 5 3 0.271 9.982194689095705 12.267473033044558 3.544788193424053 0 0 0
422 5 5 -0.43 9.885882883314075 11.633259299141086 2.582716718919147 0 0 0
423 5 4 0.053 11.27990119154373 13.113111616982312 6.579940939660488 0 0 0
464 8 5 -0.43 9.988615106177328 15.036825888621824 7.7159203575254365 0 0 0
506 11 5 -0.43 10.306841066244685 11.238922803897447 8.14832858385076 0 0 0
645 5 1 0.106 15.190700420764328 13.188543903970437 4.743284060793821 0 0 0
646 5 4 0.053 15.348658592784705 14.255473734137185 4.530619151267263 0 0 0
647 5 3 0.271 15.313853160024804 12.245830943376163 3.63034321364794 0 0 0
648 5 5 -0.43 15.42227943696273 11.520199407354484 2.7559488929209306 0 0 0
1043 3 4 0.053 8.542173316549471 9.624735367069711 2.7118232022907653 0 0 0
1065 5 2 -0.106 8.726946347715963 12.802002636346495 5.617751116663469 0 0 0
1071 5 4 0.053 8.864899153977081 13.21417369982198 6.677455606276727 0 0 0
1295 3 4 0.053 13.743996400576336 9.389321182721739 3.0452687203396893 0 0 0
1317 5 2 -0.106 13.918544336435303 12.839360661926111 5.477487679271372 0 0 0
1318 5 4 0.053 13.923981343100653 11.69409273257139 5.753490616220514 0 0 0
1319 5 1 0.106 12.65260867930796 13.336828713621603 4.80541329778702 0 0 0
1320 5 4 0.053 12.596917621972585 13.025188487033548 3.7355547079810236 0 0 0
1321 5 3 0.271 12.560336900773132 14.771159980413673 4.899242424281192 0 0 0
1323 5 4 0.053 13.890537330101337 13.286166253019521 6.518319424470077 0 0 0
696 11 5 -0.43 15.208924547441656 11.71991928871107 8.04446729498152 0 0 0
1379 9 4 0.053 13.979814491711219 9.266243307391367 8.500730377797822 0 0 0
479 9 4 0.053 11.308786174562231 9.242760043760706 8.590500818463127 0 0 0
1127 9 4 0.053 8.600782471806887 9.197996070097961 8.899478156556809 0 0 0
672 8 5 -0.43 15.186206002276208 15.186066578935673 7.3489809756963265 0 0 0
624 2 5 -0.43 14.837913092071947 14.861258427518925 1.7614855937500598 0 0 0
380 2 5 -0.43 9.717990370455855 15.12824832478565 2.014065141941537 0 0 0
1322 5 5 -0.43 12.424976609349306 15.886255095206112 5.0055130447949585 0 0 0
695 11 3 0.271 15.190356121600246 12.378358743217806 9.039499721590182 0 0 0
2103 35 4 0.053 11.090910156526414 13.352942075111962 0.9877934063793802 0 0 1
505 11 3 0.271 10.186575886852214 12.035975393305284 9.031989419767573 0 0 0
2751 35 4 0.053 8.623607554355884 13.30378547672324 0.9802353964462511 0 0 1
3003 35 4 0.053 13.832671874800948 12.809582456939472 0.9314328271638203 0 0 1
623 2 3 0.271 14.916558751939151 16.045488140628557 1.8150588502836538 0 0 0
876 9 2 -0.106 19.020644056225883 8.507129220667903 8.037228783810999 0 0 0
1132 9 3 0.271 22.97173095191218 8.92536993993571 6.002090807342884 0 0 0
54 9 4 0.053 16.268222724605444 9.209148613945704 8.47794651161987 0 0 0
880 9 3 0.271 17.766158313043306 8.889156643242664 6.0154801117757515 0 0 0
18 3 4 0.053 16.366442151082737 9.33667638617051 3.0508082634738627 0 0 0
30 5 4 0.053 16.325265703456118 13.329305338355026 6.5361903968327395 0 0 0
1133 9 5 -0.43 23.037952031394283 9.707817483054091 5.18513230450993 0 0 0
28 5 2 -0.106 16.45240541456942 12.837487460219645 5.568933357315666 0 0 0
29 5 4 0.053 16.52033632019544 11.754067817706577 5.868484222081677 0 0 0
150 3 4 0.053 21.436543150787905 9.066537742404076 3.16406366730494 0 0 0
172 5 2 -0.106 21.563925092015154 12.664340704607525 5.384719367670629 0 0 0
173 5 4 0.053 21.574325536813028 11.565327632476931 5.617883668871682 0 0 0
174 5 1 0.106 20.24615406247296 12.91856368667824 4.621623731116022 0 0 0
175 5 4 0.053 20.18463835928152 13.917942533688674 4.236456651272786 0 0 0
176 5 3 0.271 20.3313555041791 12.040959360773098 3.538482838486018 0 0 0
177 5 5 -0.43 20.34857412161761 11.227624990131286 2.6846682903394425 0 0 0
178 5 4 0.053 21.49474330164646 13.147373820925718 6.4440743477963816 0 0 0
261 11 5 -0.43 20.40349706446547 11.705547430519637 8.118146346257845 0 0 0
798 3 4 0.053 19.126287782814664 9.128081201699892 3.0771142328742354 0 0 0
820 5 2 -0.106 19.043733400806396 12.653630663263328 5.483454943839601 0 0 0
821 5 4 0.053 19.001649519793197 11.576620419555855 5.495160710555211 0 0 0
822 5 1 0.106 17.764211426794894 13.239538374666328 4.8410420790485125 0 0 0
823 5 4 0.053 17.67983814200742 13.121168375353182 3.787549424712108 0 0 0
824 5 3 0.271 17.895093805943823 14.648274363885779 4.893923349062334 0 0 0
826 5 4 0.053 19.28352106614981 12.973864119333431 6.513938797966226 0 0 0
881 9 5 -0.43 17.759987589560467 9.533967045403967 5.039707799774316 0 0 0
1074 5 1 0.106 22.853431795591696 13.227765343726029 4.7269495089627265 0 0 0
1075 5 4 0.053 22.948402727157365 12.910066194109131 3.6741028195053866 0 0 0
1076 5 3 0.271 22.859507333937408 14.628519956996866 4.772561015322157 0 0 0
219 8 5 -0.43 19.939755047501734 15.15580697718023 7.543987067337961 0 0 0
234 9 4 0.053 21.76011505397129 9.375964138919244 8.093677804692607 0 0 0
882 9 4 0.053 19.230667020798435 9.544474563705634 8.282149070290465 0 0 0
135 2 5 -0.43 19.886959499391047 14.945098443064875 1.7494344339321963 0 0 0
825 5 5 -0.43 17.985520301319774 15.845745933009814 4.892553270920874 0 0 0
1077 5 5 -0.43 22.858588379387648 15.82081140357732 4.778363038215383 0 0 0
260 11 3 0.271 20.378003972186832 12.28783244020762 9.076549981311175 0 0 0
134 2 3 0.271 19.96991866224962 16.069517079024152 1.6745201565546006 0 0 0
1614 35 4 0.053 16.33886679599486 12.69998776555816 0.908539786932869 0 0 1
1384 9 3 0.271 28.085168680985333 8.769209051404431 6.1220331852079966 0 0 0
1073 5 4 0.053 24.301575507203196 11.643882015463983 5.784782570583047 0 0 0
1072 5 2 -0.106 24.20337083924762 12.770208294987617 5.482965707409291 0 0 0
1078 5 4 0.053 24.359536296996588 13.303156212329469 6.466344788669538 0 0 0
1050 3 4 0.053 24.012697592772888 9.554447089244068 2.5129050125118315 0 0 0
700 11 5 -0.43 30.622520705577585 11.138871219116337 7.978390996603167 0 0 0
402 3 4 0.053 26.62074910574963 9.396144240494031 2.75403291121377 0 0 0
424 5 2 -0.106 26.76961415914608 12.729581172785203 5.297832157130073 0 0 0
425 5 4 0.053 26.759763582613346 11.665265202006852 5.6121120715503725 0 0 0
426 5 1 0.106 25.420477115194196 13.034773034356755 4.562848214651641 0 0 0
427 5 4 0.053 25.33790526609102 14.030886370348226 4.123673486616747 0 0 0
428 5 3 0.271 25.335160964870674 12.196318706302836 3.4443336945942264 0 0 0
429 5 5 -0.43 25.247852901147446 11.458911272864801 2.5676762298673443 0 0 0
430 5 4 0.053 26.786666964472552 13.184527595084937 6.328545082977834 0 0 0
513 11 5 -0.43 25.128245705447576 11.477126888266817 7.913763222187212 0 0 0
649 5 1 0.106 30.61023381672289 12.861938273622238 4.6387118045024085 0 0 0