LAMMPS data file via write_data, version 27 Jun 2024, timestep = 1000000, units = real

3024 atoms
5 atom types
3024 bonds
5 bond types
5616 angles
8 angle types
9072 dihedrals
8 dihedral types
3456 impropers
5 improper types

0.4537663698171901 31.38734496418431 xlo xhi
0.8134876966858133 30.64642947531393 ylo yhi
0.7435493836413585 33.93709692536071 zlo zhi
0.11455083629339828 0 0.753328548856569 xy xz yz

Atom Type Labels

1 c1
2 c2
3 ct
4 hpan
5 nt

Bond Type Labels

1 c1-c2
2 c1-ct
3 c1-hpan
4 c2-hpan
5 ct-nt

Angle Type Labels

1 c1-c2-c1
2 c1-c2-hpan
3 c1-ct-nt
4 c2-c1-c2
5 c2-c1-ct
6 c2-c1-hpan
7 ct-c1-hpan
8 hpan-c2-hpan

Dihedral Type Labels

1 hpan-c2-c1-ct
2 c2-c1-c2-hpan
3 hpan-c1-c2-hpan
4 hpan-c1-ct-nt
5 c2-c1-ct-nt
6 c1-c2-c1-c2
7 c1-c2-c1-ct
8 c1-c2-c1-hpan

Improper Type Labels

1 c1-c2-c1-hpan-nb!=3
2 c1-c2-hpan-hpan-nb!=3
3 c2-c1-c2-ct-nb!=3
4 c2-c1-c2-hpan-nb!=3
5 c2-c1-ct-hpan-nb!=3

Masses

1 12.01115
2 12.01115
3 12.01115
4 1.00797
5 14.0067

Pair Coeffs # lj/class2/coul/long

1 0.054 4.01
2 0.054 4.01
3 0.064 4.01
4 0.02 2.3
5 0.065 3.57

Bond Coeffs # morse

1 82.6961 2 1.53
2 82.6961 1.5 1.42
3 98.2315 2 1.101
4 98.2315 2 1.101
5 211.998 1.6 1.158

Angle Coeffs # class2xe

1 112.67 39.516 -7.443 -9.5583
2 110.77 41.453 -10.604 5.129
3 180 200 0 0
4 112.67 39.516 -7.443 -9.5583
5 109.5 46 0 0
6 110.77 41.453 -10.604 5.129
7 109.5 42 0 0
8 107.66 39.641 -12.921 -2.4318

BondBond Coeffs

1 82.6961 0 1.53 1.53
2 90.4638 0.136826 1.53 1.101
3 147.347 0 1.42 1.158
4 82.6961 0 1.53 1.53
5 82.6961 0 1.53 1.42
6 90.4638 0.136826 1.53 1.101
7 90.4638 0 1.42 1.101
8 98.2315 0.164736 1.101 1.101

BondAngle Coeffs

1 82.6961 82.6961 0.220151 0.220151 1.53 1.53
2 82.6961 98.2315 0.354237 0.241108 1.53 1.101
3 82.6961 211.998 0 0 1.42 1.158
4 82.6961 82.6961 0.220151 0.220151 1.53 1.53
5 82.6961 82.6961 0 0 1.53 1.42
6 82.6961 98.2315 0.354237 0.241108 1.53 1.101
7 82.6961 98.2315 0 0 1.42 1.101
8 98.2315 98.2315 0.303553 0.303553 1.101 1.101

Dihedral Coeffs # class2xe

1 0 0 0.0316 0 -0.1681 0
2 0 0 0.0316 0 -0.1681 0
3 -0.1432 0 0.0617 0 -0.1083 0
4 0 0 0 0 0 0
5 0 0 0 0 0 0
6 0 0 0.0514 0 -0.143 0
7 0 0 0.0514 0 -0.143 0
8 0 0 0.0316 0 -0.1681 0

AngleAngleTorsion Coeffs

1 0 110.77 109.5
2 -16.164 112.67 110.77
3 -12.564 110.77 110.77
4 0 109.5 180
5 0 109.5 180
6 -22.045 112.67 112.67
7 0 112.67 109.5
8 -16.164 112.67 110.77

EndBondTorsion Coeffs

1 2 1.5 0 0 0 0 0 0 1.101 1.42
2 2 2 0.2486 0.2422 -0.0925 0.0814 0.0591 0.2219 1.53 1.101
3 2 2 0.213 0.312 0.0777 0.213 0.312 0.0777 1.101 1.101
4 2 1.6 0 0 0 0 0 0 1.101 1.158
5 2 1.6 0 0 0 0 0 0 1.53 1.158
6 2 2 -0.0732 0 0 -0.0732 0 0 1.53 1.53
7 2 1.5 0 0 0 0 0 0 1.53 1.42
8 2 2 0.2486 0.2422 -0.0925 0.0814 0.0591 0.2219 1.53 1.101

MiddleBondTorsion Coeffs

1 2 0 0 0 1.53
2 2 -14.879 -3.6581 -0.3138 1.53
3 2 -14.261 -0.5322 -0.4864 1.53
4 1.5 0 0 0 1.42
5 1.5 0 0 0 1.42
6 2 -17.787 -7.1877 0 1.53
7 2 0 0 0 1.53
8 2 -14.879 -3.6581 -0.3138 1.53

BondBond13 Coeffs

1 90.4638 0 1.101 1.42
2 90.4638 0 1.53 1.101
3 98.2315 0 1.101 1.101
4 155.115 0 1.101 1.158
5 147.347 0 1.53 1.158
6 82.6961 0 1.53 1.53
7 82.6961 0 1.53 1.42
8 90.4638 0 1.53 1.101

AngleTorsion Coeffs

1 0 0 0 0 0 0 110.77 109.5
2 -0.2454 0 -0.1136 0.3113 0.4516 -0.1988 112.67 110.77
3 -0.8085 0.5569 -0.2466 -0.8085 0.5569 -0.2466 110.77 110.77
4 0 0 0 0 0 0 109.5 180
5 0 0 0 0 0 0 109.5 180
6 0.3886 -0.3139 0.1389 0.3886 -0.3139 0.1389 112.67 112.67
7 0 0 0 0 0 0 112.67 109.5
8 -0.2454 0 -0.1136 0.3113 0.4516 -0.1988 112.67 110.77

Improper Coeffs # class2

1 0 0
2 0 0
3 0 0
4 0 0
5 0 0

AngleAngle Coeffs

1 -1.3199 -1.3199 0.1184 112.67 110.77 110.77
2 0.2738 -0.4825 0.2738 110.77 110.77 107.66
3 0 0 0 112.67 109.5 109.5
4 -1.3199 -1.3199 0.1184 112.67 110.77 110.77
5 0 0 0 109.5 109.5 110.77

Atoms # full

2 1 4 0.053 0.738229565370428 1.548893063855541 1.4996414075580722 0 0 0
109 1 2 -0.106 5.988342039796215 2.7804234608053253 1.4271581675229479 0 0 0
110 1 4 0.053 6.064616959636365 1.690647782245055 1.7234900359263237 0 0 0
115 1 4 0.053 5.777709035575896 3.3813522507043596 2.3760274316410097 0 0 0
139 3 1 0.106 5.002401600465904 7.832291368990486 3.544324179444949 0 0 0
141 3 3 0.271 5.079906452003078 6.380667357176503 3.6709314260213337 0 0 0
142 3 5 -0.43 5.1342990033735605 5.1742890723642025 3.6974825635006074 0 0 0
195 7 1 0.106 4.800009168205143 2.996039585275701 5.988507592236723 0 0 0
196 7 4 0.053 4.80724957593209 3.980565181540881 5.493703893595401 0 0 0
197 7 3 0.271 4.803281259350722 2.0362402832548736 4.88798514512451 0 0 0
763 1 4 0.053 3.52177057473836 3.1568782810681437 2.5063238000153905 0 0 0
788 3 4 0.053 2.361744897862427 6.700739826318112 3.0050889584513247 0 0 0
843 7 1 0.106 2.2777559223588444 3.1838061307380148 6.1321625222069125 0 0 0
844 7 4 0.053 2.191390882787453 2.5501106098425246 5.1862983115195025 0 0 0
845 7 3 0.271 2.2969982305501864 4.5269146796377715 5.67630189565203 0 0 0
846 7 5 -0.43 2.3597017083328877 5.626591397669953 5.363386854683588 0 0 0
1040 3 4 0.053 7.418128324761453 7.048567361232635 3.317600085773101 0 0 0
1095 7 1 0.106 7.3274834488825595 3.569745261514955 6.041492130721207 0 0 0
1096 7 4 0.053 7.4187679339445305 3.39990963115382 4.964578960908477 0 0 0
1097 7 3 0.271 7.319914099870386 5.00301367918094 6.347159052327299 0 0 0
1098 7 5 -0.43 7.325518944691297 6.1436010581321145 6.658599081130576 0 0 0
37 7 2 -0.106 0.9924447269128815 2.890223808761715 6.995217726093132 0 0 0
841 7 2 -0.106 3.5483314547411178 2.912596919198177 6.932839260024134 0 0 0
38 7 4 0.053 1.032418980668925 1.8183146258015297 7.383590759039862 0 0 0
193 7 2 -0.106 6.123568102297433 2.8736178904205842 6.749023524993254 0 0 0
194 7 4 0.053 6.412177220194906 1.817410989886764 6.894545419938763 0 0 0
842 7 4 0.053 3.459801130127868 1.9475075170671328 7.43753478759652 0 0 0
847 7 4 0.053 3.641447114770103 3.717731701357968 7.681624935202615 0 0 0
1 1 2 -0.106 0.8912424539445629 2.600091780052195 1.305516835209191 0 0 0
199 7 4 0.053 6.071813948305807 3.4183273688060587 7.7036920086652225 0 0 0
14 3 4 0.053 1.1581952790543322 7.814871755183502 4.969195670935232 0 0 0
757 1 2 -0.106 3.4682693924125916 2.6905471430304178 1.452705332832632 0 0 0
758 1 4 0.053 3.4136731272655845 1.6846591589436324 1.745728172870712 0 0 0
787 3 1 0.106 2.3611592712886447 7.732612232009793 3.1630528062711982 0 0 0
1039 3 1 0.106 7.50342515048242 8.132571810834673 3.6238223636161195 0 0 0
786 3 4 0.053 3.5784082162846085 7.794375910296543 5.086838937459045 0 0 0
198 7 5 -0.43 4.718507534410257 1.2491080128310785 4.047748186480908 0 0 0
138 3 4 0.053 6.151558305575646 8.064609469625925 5.334340464818592 0 0 0
3 1 4 0.053 0.8101505264237316 3.0549882499149024 2.3318645560069426 0 0 0
13 3 2 -0.106 1.0978700824230132 8.091300900244162 3.9035453911047573 0 0 0
785 3 2 -0.106 3.6255438025417543 8.2416009379224 4.107650261149869 0 0 0
140 3 4 0.053 4.815363825092079 8.117842780483581 2.425825690074733 0 0 0
1124 9 4 0.053 7.505112663461392 7.146354398421029 8.624152740176154 0 0 0
39 7 4 0.053 0.9730680759406665 3.4208476098281007 8.063102356117376 0 0 0
1011 1 1 0.106 7.304448957432698 3.316750028851757 0.7665853334574216 0 0 0
1013 1 3 0.271 7.369981888031197 4.758332972258835 1.0734778847468112 0 0 0
1014 1 5 -0.43 7.37046339956882 5.908575920685506 1.306116338613965 0 0 0
224 9 4 0.053 4.851838826291516 8.33993352429134 8.18399318973226 0 0 0
872 9 4 0.053 2.403315567218886 6.8965288777946885 8.80264783905295 0 0 0
1123 9 1 0.106 7.559440775135113 8.145562642767707 9.040465219327224 0 0 0
789 3 3 0.271 2.3580713177666883 8.439640374204266 1.9724227629868074 0 0 0
1094 7 4 0.053 8.563199903779248 1.9147018557455728 6.780293457555298 0 0 0
1038 3 4 0.053 8.881810300439717 7.939426397673578 5.417197511100954 0 0 0
1010 1 4 0.053 8.587622612296641 1.5478879554642377 1.4034513746273225 0 0 0
1099 7 4 0.053 8.628532850420179 3.2215355061898934 7.767459625562256 0 0 0
1093 7 2 -0.106 8.587348397901946 2.9797653484786224 6.682095003367038 0 0 0
1015 1 4 0.053 8.890583884658659 3.314388434597776 2.0851907282609154 0 0 0
362 1 4 0.053 11.291817330829208 1.5471162697753305 1.3094998232800696 0 0 0
367 1 4 0.053 11.172850423126206 3.2461095495265284 2.0582058878225746 0 0 0
393 3 3 0.271 9.981375139442985 6.550238980003682 3.401155447816311 0 0 0
394 3 5 -0.43 9.882527382001289 5.428615674202331 3.210641243994326 0 0 0
447 7 1 0.106 9.966062987373379 3.328910839624476 5.9211834639946765 0 0 0
448 7 4 0.053 9.974061907746313 4.349816320902125 5.519448963981955 0 0 0
449 7 3 0.271 10.089159219946671 2.406104246532477 4.712961529633233 0 0 0
631 3 3 0.271 15.036664800226452 6.17133636057291 3.557012331362859 0 0 0
632 3 5 -0.43 15.001295459030674 4.9084310319697595 3.447190072266544 0 0 0
661 7 1 0.106 15.158680981698806 3.027222599251642 6.152155481636236 0 0 0
662 7 4 0.053 15.15206851813275 4.029241991123897 5.712831073054764 0 0 0
663 7 3 0.271 15.117141317938197 2.129116946988855 5.0253873194958665 0 0 0
1267 1 4 0.053 14.084199484512498 3.4099709818657056 1.8887303585523516 0 0 0
1292 3 4 0.053 12.422768292253776 7.107517877893101 3.233481564249559 0 0 0
1347 7 1 0.106 12.551666724066816 3.5213231168068897 6.218239372535341 0 0 0
1348 7 4 0.053 12.603950502029342 3.273790269422385 5.125008439496579 0 0 0
1349 7 3 0.271 12.619989185941952 4.950201897197216 6.176284944459551 0 0 0
1350 7 5 -0.43 12.638978679966232 6.102088474857611 6.127190678262811 0 0 0
391 3 1 0.106 10.075088645406328 8.004956535804837 3.661364137544555 0 0 0
629 3 1 0.106 15.091208656172636 7.591461913740339 3.7016691568461177 0 0 0
445 7 2 -0.106 11.193955236764348 3.043787273355044 6.8203093676091475 0 0 0
1345 7 2 -0.106 13.792986451677288 2.943458594658401 6.926806550329409 0 0 0
446 7 4 0.053 11.247248188774561 1.951873914304846 7.030549057376286 0 0 0
1346 7 4 0.053 13.708410217276846 1.8523856346342922 7.231745872500459 0 0 0
1009 1 2 -0.106 8.632250966045172 2.654699114659926 1.2215198367287516 0 0 0
361 1 2 -0.106 11.180492703484532 2.6616031975874397 1.073380057035173 0 0 0
451 7 4 0.053 11.11076704348793 3.5290261585175253 7.849399104092424 0 0 0
1351 7 4 0.053 13.790400086839034 3.400178012964987 7.875087451021597 0 0 0
1262 1 4 0.053 13.647616551874117 1.714562843638545 1.4610582073063 0 0 0
1261 1 2 -0.106 13.823677341816085 2.723114568554796 1.039348565004845 0 0 0
1291 3 1 0.106 12.622336117202869 8.130192030856936 3.5745802778918074 0 0 0
450 7 5 -0.43 10.189294185783806 1.7549952887260996 3.815168251382095 0 0 0
390 3 4 0.053 11.302860112945265 8.07340604423456 5.282630999961266 0 0 0
664 7 5 -0.43 15.066814115337401 1.340574824664325 4.067175275018627 0 0 0
1290 3 4 0.053 13.798290682311087 7.458904259695307 5.332967884136781 0 0 0
1037 3 2 -0.106 8.8399819743361 8.360990585853777 4.403492474643215 0 0 0
630 3 4 0.053 15.170261975269623 8.102831413972396 2.7580830196887303 0 0 0
1289 3 2 -0.106 13.888282407974396 8.117287468488286 4.445624011641389 0 0 0
392 3 4 0.053 9.995036569739568 8.44156526263405 2.6195411738624843 0 0 0
678 9 4 0.053 15.219499327223932 8.10814960574628 7.82480862386262 0 0 0
1376 9 4 0.053 12.604220839982881 6.906454264658119 8.33788848521974 0 0 0
476 9 4 0.053 10.134056859867902 7.887103119353872 7.88654202527834 0 0 0
475 9 1 0.106 10.116076236928599 7.744841907242417 8.998136046013972 0 0 0
1375 9 1 0.106 12.680297959709039 7.984266577879857 8.75484622271173 0 0 0
677 9 1 0.106 15.234661875163116 7.697046196288649 8.860119248280942 0 0 0
679 9 3 0.271 15.228808439576532 6.273439894996709 8.957968985614745 0 0 0
6 1 4 0.053 16.06580566943473 2.9595825010370693 2.1468659629180316 0 0 0
42 7 4 0.053 16.558007535015477 3.0979072331513353 7.947904792807012 0 0 0
5 1 4 0.053 16.29790093112562 1.404958062853202 1.3656832078937589 0 0 0
116 1 2 -0.106 21.58373201063379 2.5155618474919574 1.4344324629926066 0 0 0
117 1 4 0.053 21.76534473548036 1.5552218903745412 1.8390337694848642 0 0 0
122 1 4 0.053 21.477811226120373 3.1274707773293535 2.38447845344628 0 0 0
148 3 3 0.271 20.193342884237723 6.147581564942665 3.4711780517364432 0 0 0
149 3 5 -0.43 20.03281587695787 4.943415526352473 3.472130305185367 0 0 0
202 7 1 0.106 20.25793665914761 3.092964929382097 6.0943051212641395 0 0 0
203 7 4 0.053 20.128189734320955 4.120516734096505 5.723726804383819 0 0 0
204 7 3 0.271 20.227395322263725 2.1655911526156455 4.993466609372523 0 0 0
765 1 4 0.053 18.761607135239622 1.367052155117286 1.7021756345016656 0 0 0
770 1 4 0.053 19.1817228020004 2.9818081953051943 2.4126644061191986 0 0 0
795 3 4 0.053 17.69682536625981 6.613427081309213 3.260775017446397 0 0 0
850 7 1 0.106 17.70469616144309 3.1536465472719453 6.195811265338381 0 0 0
851 7 4 0.053 17.79993554837541 2.77046739059102 5.144006060215475 0 0 0
852 7 3 0.271 17.610255321869104 4.6282212402332865 6.355711627143077 0 0 0
853 7 5 -0.43 17.528852409681193 5.775370651048738 6.4342073371440565 0 0 0
1047 3 4 0.053 22.979564474848445 6.716907616737735 3.2793876920767246 0 0 0
1102 7 1 0.106 22.798261159383024 3.1889872657223983 6.3728242580478645 0 0 0
1103 7 4 0.053 22.84773944287727 3.052840787015026 5.257734652062549 0 0 0
1104 7 3 0.271 22.80072195379006 4.5546090362645675 6.582793106541597 0 0 0
1105 7 5 -0.43 22.825273801488926 5.7141113767117675 6.787044784917001 0 0 0
200 7 2 -0.106 21.499643827461924 2.7035893618086866 6.961085913131738 0 0 0
848 7 2 -0.106 19.02428313486766 2.723913718197303 6.940935994308689 0 0 0
201 7 4 0.053 21.44974590817543 1.644451355899946 6.959246385605341 0 0 0
146 3 1 0.106 20.334073461988993 7.608135711722621 3.5391092869448313 0 0 0
40 7 2 -0.106 16.45864114565355 2.701162403847145 6.916430004937184 0 0 0
41 7 4 0.053 16.475786750469403 1.6006009461624675 6.977273238981976 0 0 0
849 7 4 0.053 18.98917720768074 1.67551215046693 7.195130149981141 0 0 0
206 7 4 0.053 21.426983124889105 3.028083644509742 8.001580953774049 0 0 0
764 1 2 -0.106 18.92177680258822 2.515229647429959 1.4525491473587144 0 0 0
854 7 4 0.053 19.100966249370252 3.317248736705227 7.874991488128658 0 0 0
4 1 2 -0.106 16.28435040319208 2.523929021318682 1.1543729514707584 0 0 0
1046 3 1 0.106 22.969190754422144 7.8278227681064765 3.3959622593161436 0 0 0
794 3 1 0.106 17.706358214012162 7.68993182773501 3.5394163596813613 0 0 0
17 3 4 0.053 16.547795808076415 7.490405209132164 5.472534014288539 0 0 0
145 3 4 0.053 21.707832864785928 7.405866342812684 5.160656787461354 0 0 0
793 3 4 0.053 18.989396217969265 7.558284827999207 5.3505800967751265 0 0 0
205 7 5 -0.43 20.21933801249422 1.4710929415995586 4.097569808802625 0 0 0
147 3 4 0.053 20.289723098907615 8.051219016794537 2.5462801613941717 0 0 0
792 3 2 -0.106 19.018845155671933 8.070609268367022 4.327553282209482 0 0 0
144 3 2 -0.106 21.670309550875956 8.06039935426169 4.242881942186206 0 0 0
231 9 4 0.053 20.28058613962348 8.126715178543893 8.001238136043096 0 0 0
768 1 3 0.271 17.628952733432072 4.59654217703762 0.86827667797383 0 0 0
769 1 5 -0.43 17.543484272939985 5.782678951770257 1.0172316832126036 0 0 0
16 3 2 -0.106 16.48961071337864 7.963470172958665 4.419916751514856 0 0 0
879 9 4 0.053 17.77566108064815 7.046492144134577 8.478590802619644 0 0 0
1131 9 4 0.053 22.762695609154008 6.885210323631817 8.79129749260608 0 0 0
878 9 1 0.106 17.671802155910704 8.084157107949501 8.822946317047395 0 0 0
1130 9 1 0.106 22.73886625487843 8.02985684123551 8.998122609943692 0 0 0
1017 1 4 0.053 24.05976233377745 1.5524184677076378 1.7536811958875365 0 0 0
1045 3 4 0.053 24.316427424590806 7.898579313729459 5.231088830589776 0 0 0
1101 7 4 0.053 24.14901351927864 1.6458162860240606 7.15438964204936 0 0 0
1016 1 2 -0.106 24.066906719767175 2.6091033692183574 1.3605807993962773 0 0 0
1022 1 4 0.053 24.12781017855862 3.3181403282257422 2.178551796668123 0 0 0
1106 7 4 0.053 24.125700209817175 3.1938175947110143 8.093767989627807 0 0 0
368 1 2 -0.106 26.68335563414707 2.4012481846466427 1.3714277114937745 0 0 0
369 1 4 0.053 26.8929262776051 1.3088016209369304 1.4260036222544508 0 0 0
374 1 4 0.053 26.571389992885827 2.889629218779308 2.3720382303952796 0 0 0
400 3 3 0.271 25.524497773427257 6.110524897986114 3.459829009231093 0 0 0
401 3 5 -0.43 25.597820545686666 4.955862860157167 3.388105171661801 0 0 0
454 7 1 0.106 25.384485226237572 3.1659529378901343 6.296370078504359 0 0 0
455 7 4 0.053 25.34825231593306 4.241585848885533 6.031018952537918 0 0 0
456 7 3 0.271 25.525914933507003 2.278260221207254 5.141340653659069 0 0 0
633 3 1 0.106 30.666346515792227 7.60460854682787 3.271475497618095 0 0 0
635 3 3 0.271 30.537875245254355 6.125775052124701 3.1597161960934796 0 0 0
636 3 5 -0.43 30.403477785916422 5.009352484837209 3.05834441053132 0 0 0
665 7 1 0.106 30.536478524985057 3.0368131953471096 6.2842900865713345 0 0 0
666 7 4 0.053 30.445279046400827 4.104889134644161 6.027084151864065 0 0 0
667 7 3 0.271 30.51257031122892 2.298929320273132 5.093572796104024 0 0 0
1268 1 2 -0.106 29.306130392678035 2.4303222831799944 1.3593016995606657 0 0 0
1269 1 4 0.053 29.23790837741349 1.3342486091347965 1.412298296008582 0 0 0
1274 1 4 0.053 29.494096230512497 2.8021322707245586 2.4327490982380406 0 0 0
1299 3 4 0.053 27.86472938765519 6.847838952577184 3.028250716420208 0 0 0
1354 7 1 0.106 28.051195203424527 3.251783182705987 6.494541809586132 0 0 0
1355 7 4 0.053 28.02503706392819 3.038091632167643 5.425440391243234 0 0 0
1356 7 3 0.271 28.016282987669364 4.670074479581308 6.724171880280996 0 0 0
1357 7 5 -0.43 28.056457327442125 5.802740120603471 6.907040533769062 0 0 0
452 7 2 -0.106 26.723611283407628 2.894033972073413 7.081949760027121 0 0 0
1100 7 2 -0.106 24.117719373037453 2.7297658686101802 7.065200337825904 0 0 0
1352 7 2 -0.106 29.353988339698894 2.7562163625845226 7.227354603840778 0 0 0
1298 3 1 0.106 28.05427100439117 7.886920289687964 3.2661642695780935 0 0 0
458 7 4 0.053 26.556816737299798 3.1107439555253937 8.149565122189347 0 0 0
1358 7 4 0.053 29.45465699786429 3.1438417307233966 8.271209707017904 0 0 0
398 3 1 0.106 25.490274377433686 7.525544485044295 3.4978764124481128 0 0 0
1353 7 4 0.053 29.385667025939327 1.6242593199985684 7.5076826170857585 0 0 0
453 7 4 0.053 26.769601541711758 1.7660258155915387 7.0174781357286395 0 0 0
668 7 5 -0.43 30.644902363544922 1.6298608084728021 4.136930949963118 0 0 0
1297 3 4 0.053 29.33606218200677 7.66050847467159 5.0707978152029245 0 0 0
457 7 5 -0.43 25.651646647178886 1.5729461571504935 4.218805593878377 0 0 0
397 3 4 0.053 26.872863004209883 7.893539979397305 5.087877286438008 0 0 0
399 3 4 0.053 25.333944597835888 7.780507434369045 2.443601519601721 0 0 0
1044 3 2 -0.106 24.295829929417422 8.209983460343793 4.180425332465413 0 0 0
634 3 4 0.053 30.51894153204684 7.996359838579213 2.199609464448515 0 0 0
1296 3 2 -0.106 29.383523155018693 8.087807429119783 3.9878754736310427 0 0 0
396 3 2 -0.106 26.754348975452757 8.2015791050501 4.075791320313527 0 0 0
1383 9 4 0.053 27.874757281544127 7.116901231491388 8.656449354644504 0 0 0
483 9 4 0.053 25.380199869555057 8.385542404884891 7.98485204362835 0 0 0
682 9 4 0.053 30.74848115494587 8.013511878743468 8.180798363164275 0 0 0
485 9 5 -0.43 25.401433910111315 5.330944773843368 8.725605788507437 0 0 0
484 9 3 0.271 25.419645871295565 6.499472311605203 8.830790336661426 0 0 0
482 9 1 0.106 25.373621110144448 7.951837690400089 8.981004254657277 0 0 0
137 3 2 -0.106 6.2439292027310795 8.474350692079039 4.353051613289164 0 0 0
873 9 3 0.271 2.3604841971301056 8.88335173343719 7.935643791852487 0 0 0
1125 9 3 0.271 7.434138417333139 9.096981249535167 7.965208477144254 0 0 0
1041 3 3 0.271 7.4963166834546175 8.915618776224143 2.3438148357310906 0 0 0
25 5 2 -0.106 1.0439893995806813 12.623412698186495 1.6922263081460938 0 0 0
26 5 4 0.053 1.1697690130456198 11.630989879400019 2.1371027475044393 0 0 0
143 3 4 0.053 6.112173763655668 9.540561351810567 4.43954284357137 0 0 0
166 5 4 0.053 6.301755212561056 11.523371391235742 1.5829171663835582 0 0 0
171 5 4 0.053 6.099830845783938 12.96726252373532 2.682252492459217 0 0 0
251 11 1 0.106 4.668994226232104 13.311509392278454 6.54627207511705 0 0 0
252 11 4 0.053 4.575630981488365 14.371335680287988 6.247064744956693 0 0 0
253 11 3 0.271 4.67629157564667 12.502554645210099 5.323250801547637 0 0 0
254 11 5 -0.43 4.650922763161905 11.824214057804012 4.387532512926462 0 0 0
791 3 4 0.053 3.5809340785506554 9.349638302354307 4.24897060100778 0 0 0
813 5 2 -0.106 3.615819511198434 12.650015619337639 1.8431179252441223 0 0 0
814 5 4 0.053 3.652460670846218 11.66002019425333 2.4318654896284135 0 0 0
819 5 4 0.053 3.680351969670383 13.36685702482413 2.735999576463297 0 0 0
874 9 5 -0.43 2.3926330873647306 9.61853531698203 6.973794078029865 0 0 0
899 11 1 0.106 2.05848886641569 13.569267273154749 6.678061843302654 0 0 0
900 11 4 0.053 2.101352849661823 13.221245064921222 5.60931519439919 0 0 0
901 11 3 0.271 1.8708139615450836 14.898100586113724 6.526239580840605 0 0 0
1126 9 5 -0.43 7.373582158663526 9.845637651449147 7.067943041818193 0 0 0
1151 11 1 0.106 7.255015300114337 13.34651069274301 6.55488899575639 0 0 0
1152 11 4 0.053 7.185773720626547 13.015182116109772 5.527744650545006 0 0 0
1153 11 3 0.271 7.350729985347973 14.788442988098572 6.556645280177534 0 0 0
61 11 2 -0.106 0.7261159750679775 13.075604252890496 7.262751130438019 0 0 0
249 11 2 -0.106 6.005855996362521 12.93332948436092 7.25986442042004 0 0 0
250 11 4 0.053 5.940441544475005 11.83920208133012 7.360753015280352 0 0 0
897 11 2 -0.106 3.369515022101556 13.102036825429465 7.403578420288341 0 0 0
898 11 4 0.053 3.2027404474979653 12.144348470671915 7.862802189821556 0 0 0
903 11 4 0.053 3.4046370409241358 13.715039488625035 8.255050597080533 0 0 0
62 11 4 0.053 0.7652717287613464 12.029888671527498 7.650213372049529 0 0 0
255 11 4 0.053 6.043096218887527 13.192064925364807 8.347278014832439 0 0 0
128 2 5 -0.43 4.84719986955569 15.202328560627317 3.3260274810239987 0 0 0
165 5 2 -0.106 6.227184045840733 12.647097664470769 1.6079968965858424 0 0 0
790 3 5 -0.43 2.3695273548186035 9.019596955302628 0.986329487884732 0 0 0
63 11 4 0.053 0.6996978736031709 13.635721732776801 8.182186330298489 0 0 0
27 5 4 0.053 0.94413662782905 13.387083207703025 2.515913723379619 0 0 0
15 3 4 0.053 1.0704217597387733 9.252647395117668 3.944806935542159 0 0 0
1042 3 5 -0.43 7.507346180769143 9.532136316936171 1.343920342581427 0 0 0
902 11 5 -0.43 1.7064154307090433 16.00634069577457 6.42743958193888 0 0 0
1154 11 5 -0.43 7.439932948954054 15.946691588234224 6.490201695495309 0 0 0
1067 5 1 0.106 7.492784551844329 13.265880000670032 1.005697649948649 0 0 0
1069 5 3 0.271 7.469987776638488 14.711419121158379 0.883022422654423 0 0 0
1070 5 5 -0.43 7.479789290049632 15.822006428700707 0.8252820791597353 0 0 0
815 5 1 0.106 2.3246510325877017 13.08906418481371 0.9809418568748396 0 0 0
817 5 3 0.271 2.256786567517622 14.448575168740183 0.9189731597029438 0 0 0
167 5 1 0.106 4.8289160769965935 12.871622464307926 0.8975579383130414 0 0 0
818 5 5 -0.43 2.1804420518360503 15.576619140376119 0.9071039821845496 0 0 0
389 3 2 -0.106 11.342451507660003 8.574132378889164 4.346101953114232 0 0 0
1150 11 4 0.053 8.443879824801634 11.874375915967235 7.7262648731969295 0 0 0
1293 3 3 0.271 12.824817370889601 8.911274761633283 2.42682929727452 0 0 0
1377 9 3 0.271 12.690688136064532 9.00070780642063 7.676712569288736 0 0 0
1066 5 4 0.053 8.482601238813404 11.701176630715208 2.026968551425323 0 0 0
1065 5 2 -0.106 8.72604408029417 12.759521074337986 1.8638973523323987 0 0 0
1155 11 4 0.053 8.63977875556983 13.500555787876907 8.158585702110159 0 0 0
395 3 4 0.053 11.116319397938915 9.60774703683137 4.368329638782734 0 0 0
418 5 4 0.053 11.360342504870461 11.789165461639403 2.360541726861969 0 0 0
423 5 4 0.053 11.078313572195077 13.398837762576925 2.8087367103990784 0 0 0
503 11 1 0.106 9.892527675238167 13.080936049418733 6.491280314753467 0 0 0
504 11 4 0.053 9.906516159315936 14.145062291146806 6.233120185068716 0 0 0
505 11 3 0.271 9.852040383929335 12.222539244005526 5.394157803001723 0 0 0
506 11 5 -0.43 9.808211342386905 11.572533133920041 4.448340796151692 0 0 0
693 11 1 0.106 15.117914014822693 12.967449372539393 6.539735736170798 0 0 0
694 11 4 0.053 15.151640535758672 14.052596190214027 6.229577250128304 0 0 0
695 11 3 0.271 15.108886966987178 12.070852945831279 5.312163204841293 0 0 0
696 11 5 -0.43 15.167665432704405 11.400862945033765 4.322350950837471 0 0 0
1043 3 4 0.053 8.99032728303693 9.467350829348819 4.546028673807898 0 0 0
1071 5 4 0.053 8.731110144673886 13.12808608518966 2.8398329032908873 0 0 0
1295 3 4 0.053 14.003142951198884 9.185851396168061 4.79594323165597 0 0 0
1318 5 4 0.053 13.742262177900423 11.539495653663703 2.329220358582991 0 0 0
1323 5 4 0.053 14.104994058440544 13.237450723614577 3.012265832527233 0 0 0
1378 9 5 -0.43 12.680622486681715 9.829521106484277 6.817018146121775 0 0 0
1403 11 1 0.106 12.469152296478152 13.196245985523603 6.584147044382371 0 0 0
1404 11 4 0.053 12.473769058218622 12.742229203438736 5.566947076980789 0 0 0
1405 11 3 0.271 12.445851808617643 14.60976055945451 6.22976968227879 0 0 0
501 11 2 -0.106 11.154574590450832 12.768359307941813 7.276187353710691 0 0 0
1149 11 2 -0.106 8.592526974446887 12.889609725495589 7.237855858432932 0 0 0
1401 11 2 -0.106 13.756372696809146 12.793698791127182 7.322123922818224 0 0 0
380 2 5 -0.43 9.753832703670707 14.96845242024341 3.9479510438086294 0 0 0
502 11 4 0.053 11.183130572602476 11.672482080923347 7.4666163104500125 0 0 0
507 11 4 0.053 11.085655804866887 13.394781396739216 8.128840132122757 0 0 0
1402 11 4 0.053 13.738458772972884 11.742251438598503 7.770058445152351 0 0 0
1407 11 4 0.053 13.869143346643613 13.435550781306242 8.17677880777639 0 0 0
624 2 5 -0.43 14.970102413305911 15.072148183606243 4.17581915461386 0 0 0
417 5 2 -0.106 11.339528399401344 12.809678679255311 1.9509709160781332 0 0 0
1317 5 2 -0.106 13.92012781382331 12.599005767982534 2.0696987136576994 0 0 0
1406 11 5 -0.43 12.427422270045156 15.766865853708858 5.993885620630787 0 0 0
1294 3 5 -0.43 13.026259013455443 9.537124265757587 1.4623298163535976 0 0 0
419 5 1 0.106 10.081623432728847 13.000125562959031 1.135894879460211 0 0 0
1319 5 1 0.106 12.665269909884858 13.14138556052928 1.2933315306024744 0 0 0
645 5 1 0.106 15.170932302188085 12.824491746520675 1.0768042391071004 0 0 0
1321 5 3 0.271 12.707221678773209 14.636401703845774 1.0460359288583507 0 0 0
420 5 4 0.053 10.081547551315976 14.010232777031199 0.7619974340212567 0 0 0
1322 5 5 -0.43 12.744947365268173 15.775877478542814 0.8365256323570498 0 0 0
796 3 3 0.271 17.649756875317607 8.499929008078645 2.2798683223730984 0 0 0
1048 3 3 0.271 22.912683818897555 8.46067502144759 2.1515397356812174 0 0 0
880 9 3 0.271 17.631681739734518 8.88191577642562 7.668726599640154 0 0 0
18 3 4 0.053 16.398116013130934 9.018348845908228 4.615677937998216 0 0 0
66 11 4 0.053 16.334988189998175 13.225694809454511 8.373436770080705 0 0 0
30 5 4 0.053 16.634515197140146 13.202872117877513 2.680894321550073 0 0 0
1132 9 3 0.271 22.768884725126632 8.856827027554461 7.807205803809198 0 0 0
29 5 4 0.053 16.50227969801007 11.487349606130817 2.1745038905951697 0 0 0
65 11 4 0.053 16.550628591082152 11.59202093484536 7.557419711372059 0 0 0
28 5 2 -0.106 16.51623831417816 12.529824869865397 1.7780407129755962 0 0 0
150 3 4 0.053 21.669513839734748 9.119611513952613 4.577441706539408 0 0 0
172 5 2 -0.106 21.695408662977478 12.431897364061976 1.5685802116951284 0 0 0
173 5 4 0.053 21.883466339946445 11.402658202749029 1.8861957966055123 0 0 0
178 5 4 0.053 21.569480275545295 12.93740582914685 2.5113057549409645 0 0 0
259 11 4 0.053 20.30075402579272 13.803674358204463 5.718774012501168 0 0 0
260 11 3 0.271 20.21708337221068 11.819024216264634 5.181366997209219 0 0 0
261 11 5 -0.43 20.130789766421913 10.970779205026203 4.3936410154666845 0 0 0
798 3 4 0.053 18.977156527039035 9.130900959982823 4.586960422428355 0 0 0
820 5 2 -0.106 19.080004487107125 12.36217172608836 1.5490688658251095 0 0 0
821 5 4 0.053 18.90448856898236 11.270044384945239 1.6036934795872928 0 0 0
826 5 4 0.053 19.243037672060844 12.601365219770248 2.656613813115294 0 0 0
881 9 5 -0.43 17.566403920181813 9.563214306394316 6.760039242638933 0 0 0
906 11 1 0.106 17.70687286675686 13.234747142257177 6.6276689471048424 0 0 0
907 11 4 0.053 17.682978532263483 12.900184968939422 5.584052489901933 0 0 0
908 11 3 0.271 17.647836224545983 14.701123541924046 6.673695566238327 0 0 0
1133 9 5 -0.43 22.765113286702686 9.547473239982798 6.818184300602341 0 0 0
1158 11 1 0.106 22.88624311094228 13.217411590382358 6.384152028005971 0 0 0
1159 11 4 0.053 22.941770495097074 12.745852833784337 5.364853270694253 0 0 0
1160 11 3 0.271 22.75331665630283 14.60869918369663 6.281003004600821 0 0 0
258 11 1 0.106 20.32218722124545 12.884837477125922 6.263971053409433 0 0 0
64 11 2 -0.106 16.412323184947915 12.661067995756348 7.3969320994301135 0 0 0
256 11 2 -0.106 21.621103118863253 12.694918953534604 7.059863090960521 0 0 0
904 11 2 -0.106 19.0495297466543 12.782730323429062 7.281421933117096 0 0 0
135 2 5 -0.43 19.987259863412767 14.85617959355147 3.446205131345469 0 0 0
257 11 4 0.053 21.470830794694855 11.645656449483598 7.287656414615663 0 0 0
262 11 4 0.053 21.61474941753091 13.238719810526279 8.049329399106268 0 0 0
905 11 4 0.053 19.077868030583517 11.72770805941948 7.5421977540395915 0 0 0
910 11 4 0.053 19.261535811282606 13.348630593033686 8.129836784720506 0 0 0
1049 3 5 -0.43 22.906406760179024 8.955461647289397 1.0545035556867073 0 0 0
797 3 5 -0.43 17.641967382720985 9.122489431212097 1.287541501985323 0 0 0
1161 11 5 -0.43 22.649677267610706 15.816773791121673 6.164592764226796 0 0 0
909 11 5 -0.43 17.569928139622775 15.836025675444285 6.754120562919535 0 0 0
1074 5 1 0.106 22.964947175934164 12.994829157179643 0.7873709604166843 0 0 0
822 5 1 0.106 17.767355555985425 12.889477548901008 0.9626401663289339 0 0 0