LAMMPS data file via write_data, version 27 Jun 2024, timestep = 1000000, units = real

3024 atoms
5 atom types
3024 bonds
5 bond types
5616 angles
8 angle types
9072 dihedrals
8 dihedral types
3456 impropers
5 improper types

0.4962529619108835 31.344858372088915 xlo xhi
0.6989558008580854 30.76096137114198 ylo yhi
0.6632051003237756 34.017441208681234 zlo zhi
0.11543038219145028 0 0.7569753807953811 xy xz yz

Atom Type Labels

1 c1
2 c2
3 ct
4 hpan
5 nt

Bond Type Labels

1 c1-c2
2 c1-ct
3 c1-hpan
4 c2-hpan
5 ct-nt

Angle Type Labels

1 c1-c2-c1
2 c1-c2-hpan
3 c1-ct-nt
4 c2-c1-c2
5 c2-c1-ct
6 c2-c1-hpan
7 ct-c1-hpan
8 hpan-c2-hpan

Dihedral Type Labels

1 hpan-c2-c1-ct
2 c2-c1-c2-hpan
3 hpan-c1-c2-hpan
4 hpan-c1-ct-nt
5 c2-c1-ct-nt
6 c1-c2-c1-c2
7 c1-c2-c1-ct
8 c1-c2-c1-hpan

Improper Type Labels

1 c1-c2-c1-hpan-nb!=3
2 c1-c2-hpan-hpan-nb!=3
3 c2-c1-c2-ct-nb!=3
4 c2-c1-c2-hpan-nb!=3
5 c2-c1-ct-hpan-nb!=3

Masses

1 12.01115
2 12.01115
3 12.01115
4 1.00797
5 14.0067

Pair Coeffs # lj/class2/coul/long

1 0.054 4.01
2 0.054 4.01
3 0.064 4.01
4 0.02 2.3
5 0.065 3.57

Bond Coeffs # class2

1 1.53 299.67 -501.77 679.81
2 1.42 311.149 0 0
3 1.101 345 -691.89 844.6
4 1.101 345 -691.89 844.6
5 1.158 880 0 0

Angle Coeffs # class2

1 112.67 39.516 -7.443 -9.5583
2 110.77 41.453 -10.604 5.129
3 180 200 0 0
4 112.67 39.516 -7.443 -9.5583
5 109.5 46 0 0
6 110.77 41.453 -10.604 5.129
7 109.5 42 0 0
8 107.66 39.641 -12.921 -2.4318

BondBond Coeffs

1 0 1.53 1.53
2 3.3872 1.53 1.101
3 0 1.42 1.158
4 0 1.53 1.53
5 0 1.53 1.42
6 3.3872 1.53 1.101
7 0 1.42 1.101
8 5.3316 1.101 1.101

BondAngle Coeffs

1 8.016 8.016 1.53 1.53
2 20.754 11.421 1.53 1.101
3 0 0 1.42 1.158
4 8.016 8.016 1.53 1.53
5 0 0 1.53 1.42
6 20.754 11.421 1.53 1.101
7 0 0 1.42 1.101
8 18.103 18.103 1.101 1.101

Dihedral Coeffs # class2

1 0 0 0.0316 0 -0.1681 0
2 0 0 0.0316 0 -0.1681 0
3 -0.1432 0 0.0617 0 -0.1083 0
4 0 0 0 0 0 0
5 0 0 0 0 0 0
6 0 0 0.0514 0 -0.143 0
7 0 0 0.0514 0 -0.143 0
8 0 0 0.0316 0 -0.1681 0

AngleAngleTorsion Coeffs

1 0 110.77 109.5
2 -16.164 112.67 110.77
3 -12.564 110.77 110.77
4 0 109.5 180
5 0 109.5 180
6 -22.045 112.67 112.67
7 0 112.67 109.5
8 -16.164 112.67 110.77

EndBondTorsion Coeffs

1 0 0 0 0 0 0 1.101 1.42
2 0.2486 0.2422 -0.0925 0.0814 0.0591 0.2219 1.53 1.101
3 0.213 0.312 0.0777 0.213 0.312 0.0777 1.101 1.101
4 0 0 0 0 0 0 1.101 1.158
5 0 0 0 0 0 0 1.53 1.158
6 -0.0732 0 0 -0.0732 0 0 1.53 1.53
7 0 0 0 0 0 0 1.53 1.42
8 0.2486 0.2422 -0.0925 0.0814 0.0591 0.2219 1.53 1.101

MiddleBondTorsion Coeffs

1 0 0 0 1.53
2 -14.879 -3.6581 -0.3138 1.53
3 -14.261 -0.5322 -0.4864 1.53
4 0 0 0 1.42
5 0 0 0 1.42
6 -17.787 -7.1877 0 1.53
7 0 0 0 1.53
8 -14.879 -3.6581 -0.3138 1.53

BondBond13 Coeffs

1 0 1.101 1.42
2 0 1.53 1.101
3 0 1.101 1.101
4 0 1.101 1.158
5 0 1.53 1.158
6 0 1.53 1.53
7 0 1.53 1.42
8 0 1.53 1.101

AngleTorsion Coeffs

1 0 0 0 0 0 0 110.77 109.5
2 -0.2454 0 -0.1136 0.3113 0.4516 -0.1988 112.67 110.77
3 -0.8085 0.5569 -0.2466 -0.8085 0.5569 -0.2466 110.77 110.77
4 0 0 0 0 0 0 109.5 180
5 0 0 0 0 0 0 109.5 180
6 0.3886 -0.3139 0.1389 0.3886 -0.3139 0.1389 112.67 112.67
7 0 0 0 0 0 0 112.67 109.5
8 -0.2454 0 -0.1136 0.3113 0.4516 -0.1988 112.67 110.77

Improper Coeffs # class2

1 0 0
2 0 0
3 0 0
4 0 0
5 0 0

AngleAngle Coeffs

1 -1.3199 -1.3199 0.1184 112.67 110.77 110.77
2 0.2738 -0.4825 0.2738 110.77 110.77 107.66
3 0 0 0 112.67 109.5 109.5
4 -1.3199 -1.3199 0.1184 112.67 110.77 110.77
5 0 0 0 109.5 109.5 110.77

Atoms # full

195 7 1 0.106 4.856745160487828 3.1433398690123924 4.402421122260581 0 0 0
196 7 4 0.053 4.798392026113151 4.175672833970115 4.0625085208386835 0 0 0
197 7 3 0.271 4.778235865816994 2.223178809561209 3.3280754710256093 0 0 0
843 7 1 0.106 2.344629596178552 3.2585666722279174 4.4974951158189285 0 0 0
844 7 4 0.053 2.306160743820125 2.6975359858882793 3.559050191139433 0 0 0
845 7 3 0.271 2.2023776405320223 4.711240329576446 4.3246432560770955 0 0 0
846 7 5 -0.43 2.1596677264682196 5.853532225403878 4.17384978635509 0 0 0
1095 7 1 0.106 7.429953429267881 3.2465549174753217 4.269803163397448 0 0 0
1096 7 4 0.053 7.3262233359915765 2.7833876474369896 3.2693031955448033 0 0 0
1097 7 3 0.271 7.403581941413448 4.605542790617018 4.0333717782308 0 0 0
1098 7 5 -0.43 7.413809646566672 5.744604735666819 3.8411518475991113 0 0 0
1124 9 4 0.053 7.568578220107346 6.707111570616089 6.618452866674854 0 0 0
37 7 2 -0.106 1.1083362141268154 2.872595724406883 5.29692576826189 0 0 0
193 7 2 -0.106 6.2188376426668786 2.872674406018238 5.160637187213472 0 0 0
194 7 4 0.053 6.253785787876158 1.7873317431725422 5.338948039033002 0 0 0
199 7 4 0.053 6.274407633990875 3.436891897200739 6.077071893303618 0 0 0
841 7 2 -0.106 3.6278883202019516 2.963761567616702 5.3304482075738 0 0 0
842 7 4 0.053 3.7083168681594714 1.9613472143648452 5.847218328613049 0 0 0
847 7 4 0.053 3.829073368724803 3.7117029268958897 6.176906364915935 0 0 0
225 9 3 0.271 5.354174571436891 6.057525936026735 7.6061084121953835 0 0 0
226 9 5 -0.43 5.50849233988834 4.930950524829391 7.862570805850702 0 0 0
872 9 4 0.053 2.4957010024557285 6.790653144906798 6.63231032201462 0 0 0
223 9 1 0.106 5.135046577117523 7.456823394211353 7.2598010478032435 0 0 0
787 3 1 0.106 2.174383685631404 7.7943819100566785 1.6582127894432555 0 0 0
1039 3 1 0.106 7.240974668570821 7.982246091740467 1.660548109604977 0 0 0
141 3 3 0.271 4.779308623689958 6.250998954474079 1.929717208045972 0 0 0
139 3 1 0.106 4.760690814244478 7.6680772584250345 1.8763771050143572 0 0 0
14 3 4 0.053 0.8652918606582494 7.9229203769854735 3.4469350623250303 0 0 0
138 3 4 0.053 6.188100725365057 7.846625246083817 3.5577472339074943 0 0 0
1123 9 1 0.106 7.699028181100062 7.773182744435794 6.836520921369362 0 0 0
38 7 4 0.053 1.1757977871918828 1.8522023321702716 5.594603892053351 0 0 0
39 7 4 0.053 1.1627569059299963 3.4492262711469013 6.281403354103751 0 0 0
142 3 5 -0.43 4.780159806989215 5.096767332486145 1.8685945126514465 0 0 0
786 3 4 0.053 3.24314438616563 7.7182262255971805 3.556568066287366 0 0 0
788 3 4 0.053 2.14010544255422 6.7702273559706585 1.427298569547259 0 0 0
198 7 5 -0.43 4.703295540893621 1.4197462996271666 2.489191754014689 0 0 0
1040 3 4 0.053 7.268865101912798 6.941409543677471 1.3481923944827305 0 0 0
785 3 2 -0.106 3.4013044250874365 8.087744062792375 2.5397108293585102 0 0 0
282 13 5 -0.43 4.916898602311896 1.3448928051709177 7.947287239849272 0 0 0
137 3 2 -0.106 5.972388847174476 8.296471790475312 2.5079632721703327 0 0 0
13 3 2 -0.106 0.8958282910022417 8.188963788245848 2.367893579035965 0 0 0
50 9 4 0.053 1.084596410946344 7.676269831327998 8.751943635919657 0 0 0
871 9 1 0.106 2.560181905984562 7.826082944696747 7.128096049631247 0 0 0
221 9 2 -0.106 6.438015393217386 8.206075272758238 7.64978748234701 0 0 0
281 13 3 0.271 4.925437308386201 2.0440217382088326 8.884338574396194 0 0 0
49 9 2 -0.106 1.1970980032524419 8.142336210443013 7.781856397386099 0 0 0
869 9 2 -0.106 3.880590762431072 7.936687870287341 7.9126316192144035 0 0 0
870 9 4 0.053 3.80133163380903 7.500261125677487 8.884537698677176 0 0 0
224 9 4 0.053 5.100633403422673 7.628576583482698 6.153167336819518 0 0 0
222 9 4 0.053 6.5458894454253995 7.973562074537724 8.732669660725483 0 0 0
115 1 4 0.053 5.958558535440408 2.8279816239799027 0.7478547942821219 0 0 0
140 3 4 0.053 4.832092061918903 7.821499422110782 0.7863604150380842 0 0 0
1122 9 4 0.053 8.97270101971916 7.446452320276687 8.487622535142595 0 0 0
1094 7 4 0.053 8.54963342660121 1.841013861010548 5.492623293135456 0 0 0
1038 3 4 0.053 8.596413114114473 7.780261338706566 3.318741837587799 0 0 0
1099 7 4 0.053 8.984582674316304 3.371950065135296 5.94536981419168 0 0 0
390 3 4 0.053 11.248207715031361 7.28868742471279 3.185922803785044 0 0 0
447 7 1 0.106 9.999610782624186 2.793479537285814 4.09187374392727 0 0 0
448 7 4 0.053 10.01033742227482 3.8350273817339833 3.5783753062966506 0 0 0
449 7 3 0.271 9.819567333090225 1.7596693366471503 3.093797774082936 0 0 0
661 7 1 0.106 15.111209238305937 2.8470632320169194 4.685024397404286 0 0 0
662 7 4 0.053 15.096576837955785 3.962645910076962 4.45456411972551 0 0 0
663 7 3 0.271 15.120975794238301 2.1462229417365357 3.412605348441301 0 0 0
1347 7 1 0.106 12.564941933371864 3.020355372628151 4.396940614107773 0 0 0
1348 7 4 0.053 12.694255942095962 2.6271445717219195 3.3611918710673416 0 0 0
1349 7 3 0.271 12.390810960900465 4.4185109687808595 4.3163269582109836 0 0 0
1350 7 5 -0.43 12.255505557466504 5.546063015278231 4.285157394896505 0 0 0
445 7 2 -0.106 11.239067518996132 2.428491430778565 5.02094885658542 0 0 0
446 7 4 0.053 11.256784876994244 1.3464314112854012 5.181949171077544 0 0 0
451 7 4 0.053 11.134625833305876 2.92398014093895 6.024320158474717 0 0 0
1093 7 2 -0.106 8.760835363841073 2.834278493778122 5.012052246245145 0 0 0
1345 7 2 -0.106 13.755910919925523 2.519596531086375 5.310458678245103 0 0 0
1346 7 4 0.053 13.648382287538356 1.4335783671151276 5.588290589918431 0 0 0
1351 7 4 0.053 13.686655439086229 3.0663848136151115 6.30849079574736 0 0 0
477 9 3 0.271 10.46089838464595 6.178932967219815 6.927154661276514 0 0 0
679 9 3 0.271 15.344749949057853 6.175730411524565 6.983116338031257 0 0 0
1376 9 4 0.053 12.704813576842097 6.913143873236605 6.304891237420671 0 0 0
478 9 5 -0.43 10.57821689778666 5.044106171168254 6.988361269609956 0 0 0
680 9 5 -0.43 15.4215984891572 5.004579105681655 6.863923842072187 0 0 0
475 9 1 0.106 10.256393520754619 7.570345712588405 6.811477930253113 0 0 0
677 9 1 0.106 15.261753610000921 7.608356305668532 7.067896853458578 0 0 0
391 3 1 0.106 9.789482671375648 7.7886542175117395 1.5644076171927703 0 0 0
393 3 3 0.271 9.720454555832879 6.377398055071775 1.3715773926763344 0 0 0
629 3 1 0.106 14.999173226538048 7.614171707492794 1.637099108861439 0 0 0
1291 3 1 0.106 12.461711926027759 7.94907028223162 1.433283187977401 0 0 0
712 13 5 -0.43 15.12852721751554 1.5250858988995342 7.813412906726386 0 0 0
1290 3 4 0.053 13.600098422750193 7.533579233350403 3.138739625183498 0 0 0
534 13 5 -0.43 9.924674534279605 1.6856647699183525 8.071920523222385 0 0 0
631 3 3 0.271 15.139420028373891 6.206985832753828 2.017125196564626 0 0 0
1292 3 4 0.053 12.42249807403399 6.924235650862599 1.0523229415135187 0 0 0
394 3 5 -0.43 9.669037654661716 5.2246056595010835 1.2218226285426093 0 0 0
664 7 5 -0.43 15.157398986175856 1.5678620586590273 2.3767158206407712 0 0 0
1375 9 1 0.106 12.809533340570306 7.955092586850386 6.831183051071079 0 0 0
632 3 5 -0.43 15.236349113854136 5.096766318473091 2.2931037147797015 0 0 0
450 7 5 -0.43 9.664972818414345 0.9197789105107554 2.302679992679986 0 0 0
1289 3 2 -0.106 13.744510986315118 8.159417533419354 2.292693560215806 0 0 0
678 9 4 0.053 15.219440516125987 8.080144693287565 6.062456512929732 0 0 0
473 9 2 -0.106 11.443925069281857 8.172541869886118 7.5569440713025084 0 0 0
1037 3 2 -0.106 8.582208416830829 8.289840009375013 2.3555208486828985 0 0 0
1373 9 2 -0.106 13.994886884324625 8.03584690534969 7.839428034782711 0 0 0
1121 9 2 -0.106 9.078429744705165 7.992423552474858 7.568792817342902 0 0 0
476 9 4 0.053 10.280741251437997 7.911369643261223 5.773375614985822 0 0 0
389 3 2 -0.106 11.19671741535143 8.049951819701807 2.307227212826482 0 0 0
711 13 3 0.271 15.151868519537588 2.1723438765918313 8.760421076311745 0 0 0
474 9 4 0.053 11.39398505605264 7.961999396162646 8.592300871424312 0 0 0
1374 9 4 0.053 13.679667116680395 7.472331014881678 8.771285634415188 0 0 0
367 1 4 0.053 11.306903190417255 3.003685272059698 1.0968174496911876 0 0 0
1267 1 4 0.053 13.941142447062123 2.5645258275370075 0.7837112379763461 0 0 0
1015 1 4 0.053 8.458588178368718 3.307953213948462 0.7831915340481209 0 0 0
42 7 4 0.053 16.645128483726463 2.913835004738372 6.450714953165919 0 0 0
202 7 1 0.106 20.318279950284985 2.9602017038805886 4.266036109704634 0 0 0
203 7 4 0.053 20.1892572502648 3.9716034680303363 3.9006505841093184 0 0 0
204 7 3 0.271 20.408718910406797 2.1247257215694657 3.1323507581531786 0 0 0
850 7 1 0.106 17.71035211962056 2.985821920436583 4.595016161062254 0 0 0
851 7 4 0.053 17.495083502763055 2.4813610456444435 3.613193841964144 0 0 0
852 7 3 0.271 17.542816826217795 4.345575568241232 4.488673137254578 0 0 0
853 7 5 -0.43 17.457401827872577 5.4738592074263615 4.404434347450591 0 0 0
1102 7 1 0.106 22.92147237904065 3.4428152082415195 4.361736194554528 0 0 0
1103 7 4 0.053 22.89457073885446 3.1670412257039198 3.305240550999448 0 0 0
1104 7 3 0.271 23.00347502054655 4.810277324456553 4.315034553801198 0 0 0
1105 7 5 -0.43 23.08926668870839 5.976862511435256 4.266186668875415 0 0 0
40 7 2 -0.106 16.544030629311987 2.5237952914934154 5.445278956585477 0 0 0
41 7 4 0.053 16.58496148089972 1.4720664233419507 5.715944651971634 0 0 0
200 7 2 -0.106 21.67300514320941 2.865694272788525 5.055333223690099 0 0 0
201 7 4 0.053 21.72024007406853 1.7460003657692496 5.188251246994731 0 0 0
206 7 4 0.053 21.48759712114131 3.363684198347115 6.02346129619521 0 0 0
848 7 2 -0.106 19.051292765451528 2.577632408243521 5.1194778508523715 0 0 0
849 7 4 0.053 19.09684079476647 1.4801567556707038 5.270479727143197 0 0 0
854 7 4 0.053 19.38153195881851 2.894204650799568 6.108201800162021 0 0 0
232 9 3 0.271 20.33938156162882 6.433404659462582 7.19250299661951 0 0 0
233 9 5 -0.43 20.307682739354046 5.239953926122838 7.25792093687825 0 0 0
879 9 4 0.053 18.002931417979102 6.918799002402481 6.662256325546755 0 0 0
1131 9 4 0.053 23.00280726824495 7.142353160085794 6.957744507298341 0 0 0
230 9 1 0.106 20.403456995091595 7.831913990196625 7.171599600592293 0 0 0
146 3 1 0.106 20.196003172721095 7.350025588736728 1.5714346931945569 0 0 0
1046 3 1 0.106 22.719292409041515 7.9438768200751575 1.2562601804233466 0 0 0
148 3 3 0.271 20.280311129326 5.928256037853796 1.6064004438451072 0 0 0
794 3 1 0.106 17.665252466178043 7.916454493432877 1.442381857596434 0 0 0
145 3 4 0.053 21.627158142824634 7.751758964165175 3.117922907617067 0 0 0
1130 9 1 0.106 22.976856642936497 8.230573801719514 7.284316947387247 0 0 0
205 7 5 -0.43 20.459985212872592 1.4496765180921427 2.1570570610554967 0 0 0
878 9 1 0.106 17.885654218227675 8.048534721661063 6.922362854882604 0 0 0
149 3 5 -0.43 20.38758394385842 4.762639796099446 1.5887821122157368 0 0 0
289 13 5 -0.43 20.29743909257333 1.2566560600034178 7.769749453468474 0 0 0
1047 3 4 0.053 22.838435236884195 6.879158526402001 0.9712881720044768 0 0 0
793 3 4 0.053 18.766470136736583 7.000352816015919 3.191586256945329 0 0 0
52 9 2 -0.106 16.584454736806276 8.17399148077266 7.708964715272729 0 0 0
228 9 2 -0.106 21.589535618705902 8.36736423766478 8.019453008528838 0 0 0
17 3 4 0.053 16.471371550795894 8.07916733040328 3.2671330563642718 0 0 0
795 3 4 0.053 17.477674746546157 6.882081727801553 1.1683751593445444 0 0 0
16 3 2 -0.106 16.289017669859213 8.354772795932401 2.1684916624743806 0 0 0
144 3 2 -0.106 21.4384995974234 8.022604447771995 2.081691657847842 0 0 0
231 9 4 0.053 20.49699286633969 8.121716468311387 6.174849857907672 0 0 0
288 13 3 0.271 20.340432881896277 1.9774402858445845 8.693592821252212 0 0 0
792 3 2 -0.106 18.91746061404766 7.745518601295118 2.329011907270411 0 0 0
229 9 4 0.053 21.547983472268452 7.942023081772345 8.975502021146713 0 0 0
877 9 4 0.053 19.07501630637406 8.0530406379414 8.782856065768964 0 0 0
53 9 4 0.053 16.783774839381167 7.725723892780664 8.715935744162527 0 0 0
1187 13 4 0.053 23.134285035401724 3.2019014805350032 8.85165845352729 0 0 0
1101 7 4 0.053 23.99011314665936 1.7708392726732922 5.360849361039514 0 0 0
1045 3 4 0.053 23.94847451192516 7.802762023718606 3.0981786598937466 0 0 0
684 9 5 -0.43 30.477434588130155 5.247834334293862 7.001257474714253 0 0 0
454 7 1 0.106 25.538008240576165 3.0200927351527516 4.395862454795565 0 0 0
455 7 4 0.053 25.720101669839785 4.070447606938632 4.184315849168479 0 0 0
456 7 3 0.271 25.648211149252994 2.281624260488373 3.1812901198582018 0 0 0
665 7 1 0.106 30.685086522170256 2.9066741389437696 4.4971068634787255 0 0 0
666 7 4 0.053 30.463443554876346 4.008786920116998 4.142451882204891 0 0 0
667 7 3 0.271 30.746077214632606 2.1383522388929563 3.2445664502374996 0 0 0
1354 7 1 0.106 28.09515483455802 3.125884412617952 4.5434481423401625 0 0 0
1355 7 4 0.053 28.094099456319917 2.803518406047929 3.468380740370771 0 0 0
1356 7 3 0.271 28.158319001706307 4.56807018325866 4.556852070775977 0 0 0
1357 7 5 -0.43 28.200848039279357 5.7263142589117795 4.539481838530916 0 0 0
452 7 2 -0.106 26.76087325355018 2.6421550744922566 5.244958348425109 0 0 0
453 7 4 0.053 26.855109187767237 1.5390012094755385 5.327722467982755 0 0 0
458 7 4 0.053 26.57280593156511 3.0926294703849084 6.267143089701589 0 0 0
1100 7 2 -0.106 24.177734121033115 2.854649072393669 5.11444660833812 0 0 0
1106 7 4 0.053 24.32992073254158 3.3160621790615536 6.129537115833279 0 0 0
1352 7 2 -0.106 29.381915250201992 2.5608798873252114 5.232917210605147 0 0 0
1353 7 4 0.053 29.362995949492685 1.449534742255982 5.470943959644841 0 0 0
1358 7 4 0.053 29.474531119233465 3.073926732707558 6.215152402984272 0 0 0
484 9 3 0.271 25.559993136806334 6.54525144755182 7.198210340134952 0 0 0
485 9 5 -0.43 25.61289292917542 5.375290435896004 7.206640997590731 0 0 0
681 9 1 0.106 30.71974090607598 7.786148888306713 7.051409802006992 0 0 0
1383 9 4 0.053 28.153695475544687 7.221052295938791 6.560010438743902 0 0 0
683 9 3 0.271 30.58593137012485 6.376469065685394 7.020181803218343 0 0 0
633 3 1 0.106 30.42477775502495 7.6304844337089275 1.702796937858651 0 0 0
1382 9 1 0.106 28.167206945020997 8.192326117990998 6.960593975965496 0 0 0
400 3 3 0.271 25.39519202895107 6.463533790303281 1.2366950780225074 0 0 0
398 3 1 0.106 25.293317850972194 7.936856555712246 1.3998564904063828 0 0 0
1298 3 1 0.106 27.922928039721807 7.923379734734108 1.4137790314928345 0 0 0
1297 3 4 0.053 29.069534198374676 7.731284919905929 3.3746009372513557 0 0 0
716 13 5 -0.43 30.849344624445518 1.6660719891968827 7.837320475990276 0 0 0
668 7 5 -0.43 30.780957968958543 1.5332999471825395 2.2634558819736093 0 0 0
482 9 1 0.106 25.532306013649904 8.00680212782817 7.231285172239887 0 0 0
397 3 4 0.053 26.70679776692959 7.766305673044904 3.064007233506273 0 0 0
1299 3 4 0.053 27.9488535480952 6.893196273777317 1.0493638193767305 0 0 0
541 13 5 -0.43 25.678344161892294 1.4124805575798534 8.137022707588686 0 0 0
457 7 5 -0.43 25.783247701666976 1.724373844812576 2.19884734129188 0 0 0
401 3 5 -0.43 25.50178768846684 5.3310510983805575 1.037536593647634 0 0 0
635 3 3 0.271 30.342522754491206 6.2319357506356345 1.7911169131736049 0 0 0
636 3 5 -0.43 30.242661694231067 5.060462267944864 1.8753459581643097 0 0 0
483 9 4 0.053 25.395743107887675 8.346226984656674 6.174864988385096 0 0 0
396 3 2 -0.106 26.645610958715224 8.273960629802929 2.100171625100767 0 0 0
1296 3 2 -0.106 29.162131932235592 8.191341648924688 2.3094515107837568 0 0 0
481 9 4 0.053 26.930760466737716 7.988753442196119 8.851354098849535 0 0 0
1381 9 4 0.053 29.397444172779867 7.851511607683593 8.773247803231643 0 0 0
540 13 3 0.271 25.61609623974136 2.258981110933219 8.94114110696007 0 0 0
1044 3 2 -0.106 23.966306769638656 8.307867416152293 2.125570355104598 0 0 0
682 9 4 0.053 30.67579331987405 8.227480775191022 6.060838097026623 0 0 0
1380 9 2 -0.106 29.45091070110038 8.359837569799808 7.8445163621445655 0 0 0
715 13 3 0.271 30.754001893741165 2.3494031376600626 8.73299695391497 0 0 0
873 9 3 0.271 2.717586241042982 8.652237253736786 5.985362273772582 0 0 0
1125 9 3 0.271 7.751878155505097 8.63407181800373 5.774969046906181 0 0 0
25 5 2 -0.106 1.1220796457577462 12.521753836919634 5.5342467613925335 0 0 0
26 5 4 0.053 1.2130372434649015 11.469928650982782 5.685028216921452 0 0 0
143 3 4 0.053 5.939285038503767 9.396881683429427 2.5431611088684134 0 0 0
165 5 2 -0.106 6.2828065172446745 12.633878938458595 5.2809612149876335 0 0 0
166 5 4 0.053 6.411028841310102 11.555604175151855 5.502325548370418 0 0 0
167 5 1 0.106 4.966700615319311 12.952253263809409 4.616785595611606 0 0 0
168 5 4 0.053 4.845219531445117 13.996349313884592 4.414610926927937 0 0 0
169 5 3 0.271 4.964459176948056 12.214397877491251 3.3792434888732297 0 0 0
170 5 5 -0.43 4.983152861839257 11.546664720456826 2.471531483023904 0 0 0
171 5 4 0.053 6.397007352450876 13.21267489605943 6.228453813044415 0 0 0
254 11 5 -0.43 5.072235623817416 11.584983194823302 8.36012940205461 0 0 0
791 3 4 0.053 3.4340257406597297 9.145585913342495 2.8375296146371514 0 0 0
813 5 2 -0.106 3.7240976147229707 12.581822855303068 5.450504666713672 0 0 0
814 5 4 0.053 3.7436992257355644 11.4368182692829 5.582278019533213 0 0 0
815 5 1 0.106 2.417241692764077 13.121973036243075 4.928910118663236 0 0 0
816 5 4 0.053 2.481642567435823 12.812041941203043 3.836120078603681 0 0 0
817 5 3 0.271 2.47933719541125 14.531713552583021 4.971683006369472 0 0 0
819 5 4 0.053 3.8404834440538127 12.933659728155906 6.485651464445935 0 0 0
874 9 5 -0.43 2.8885537015861464 9.349128777223678 5.060096200502523 0 0 0
1067 5 1 0.106 7.593449521656335 13.09028796353615 4.545604763880458 0 0 0
1068 5 4 0.053 7.607285677370056 12.798013145487786 3.502699048973293 0 0 0
1069 5 3 0.271 7.602265893145588 14.487093806722694 4.498127181402269 0 0 0
1126 9 5 -0.43 7.724624928711667 9.32327888510953 4.834375758100771 0 0 0
212 8 5 -0.43 4.904152827151276 14.989450579299852 6.823624277293418 0 0 0
875 9 4 0.053 4.071133235389665 9.03461303104874 8.087872024285737 0 0 0
227 9 4 0.053 6.2834011188046865 9.315986739502684 7.598458275190206 0 0 0
51 9 4 0.053 1.180988952018152 9.231790074256722 7.975307206623327 0 0 0
27 5 4 0.053 0.9826042887743833 12.819937610277174 6.595049970796936 0 0 0
15 3 4 0.053 0.8019230901167429 9.335143471521492 2.3413212686552214 0 0 0
128 2 5 -0.43 4.808929895349327 15.038332858215018 1.7443460405626068 0 0 0
1070 5 5 -0.43 7.640124185037686 15.646911793105751 4.438696021549346 0 0 0
818 5 5 -0.43 2.4548977147626916 15.68061056872023 5.010218004238968 0 0 0
1851 35 4 0.053 6.085093989448553 13.344621913792304 0.679166987393079 0 0 1
2499 35 4 0.053 3.359257876184576 13.193231753492785 0.7134084705614844 0 0 1
1377 9 3 0.271 12.90589376682247 8.86143342343367 5.734847457102625 0 0 0
1378 9 5 -0.43 12.9963458636352 9.64740702469258 4.868707057853518 0 0 0
1066 5 4 0.053 8.758462584113705 11.464807974548169 5.575764704306338 0 0 0
395 3 4 0.053 11.252649576976095 9.099198517328118 2.661379230632016 0 0 0
417 5 2 -0.106 11.355060975950204 12.478695409261693 5.486606384874179 0 0 0
418 5 4 0.053 11.4487681949398 11.4001888265415 5.576205261887778 0 0 0
419 5 1 0.106 10.147854668836143 12.811688924389422 4.635371599176789 0 0 0
420 5 4 0.053 10.150605455535938 13.805437097974156 4.235430638098361 0 0 0
421 5 3 0.271 10.227907090564589 12.090074051397655 3.431124311000813 0 0 0
422 5 5 -0.43 10.264442354280236 11.492557384196804 2.4174215211688095 0 0 0
423 5 4 0.053 11.297953406212637 12.760632785805738 6.577600777485822 0 0 0
464 8 5 -0.43 9.950011743647798 14.73400545666378 7.6561377239101684 0 0 0
506 11 5 -0.43 9.911707405149873 11.687689660955993 8.236922639717609 0 0 0
645 5 1 0.106 15.107556197092023 13.178782004196789 4.69596480310959 0 0 0
646 5 4 0.053 15.177511430999411 14.276099591018093 4.602626146110798 0 0 0
647 5 3 0.271 15.028354822182754 12.559867169952454 3.468211401079978 0 0 0
648 5 5 -0.43 14.967127377998931 12.092028132019637 2.417931881849157 0 0 0
1043 3 4 0.053 8.62640712178743 9.4175731981792 2.4817345747395567 0 0 0
1065 5 2 -0.106 8.789814315808176 12.57610492158536 5.331187190029936 0 0 0
1071 5 4 0.053 8.72112262921551 13.077256199531732 6.2873780076381705 0 0 0
1295 3 4 0.053 13.779888913126253 9.186770358111652 2.59448350361136 0 0 0
1317 5 2 -0.106 13.941628620910317 12.796892423409 5.578741524331614 0 0 0
1318 5 4 0.053 13.884910603448652 11.668275485202134 5.732973036256883 0 0 0
1319 5 1 0.106 12.60182705527027 13.18679629637248 4.878294269087298 0 0 0
1320 5 4 0.053 12.664898900830723 12.880203761660015 3.8110738341344628 0 0 0
1321 5 3 0.271 12.451152468515918 14.619215241448202 4.836998392988498 0 0 0
1323 5 4 0.053 13.952514736569764 13.3663722153891 6.606238975096921 0 0 0
696 11 5 -0.43 15.074262784455666 11.247402129252134 7.933531479240089 0 0 0
1379 9 4 0.053 14.032328975238396 9.160452089346402 8.1394514072422 0 0 0
479 9 4 0.053 11.28605472735934 9.282374902854071 7.566362858786569 0 0 0
1127 9 4 0.053 9.130270219470269 9.13268647825082 7.827004170478807 0 0 0
1322 5 5 -0.43 12.357725249647562 15.783343996851059 4.789327386770169 0 0 0
624 2 5 -0.43 15.281090083867861 15.224813663785186 2.385544024422459 0 0 0
672 8 5 -0.43 15.511487803511843 14.909911355581983 7.537882454510413 0 0 0
380 2 5 -0.43 9.987824559957469 14.805263214335607 1.5112059890935483 0 0 0
695 11 3 0.271 15.124371320447002 11.9557694218887 8.832284451039275 0 0 0
463 8 3 0.271 10.03616766032148 15.866109326503969 7.4773356672584566 0 0 0
379 2 3 0.271 9.985131214546968 15.973927164866152 1.5921963200905602 0 0 0
671 8 3 0.271 15.35170036708618 16.06280252163331 7.356389071206403 0 0 0
3003 35 4 0.053 13.773071744828073 13.152422215439135 0.6898028128199448 0 0 1
876 9 2 -0.106 19.137921000194776 8.473426771466151 7.720199253467151 0 0 0
54 9 4 0.053 16.421683119533505 9.21757906607899 7.986550695276503 0 0 0
880 9 3 0.271 17.636912420877298 8.822470133782979 5.786002450030539 0 0 0
30 5 4 0.053 16.59193363571108 13.424019113873563 6.3006991484672 0 0 0
18 3 4 0.053 16.156329246546264 9.420923111737473 2.1991259752756944 0 0 0
1132 9 3 0.271 22.89003871070164 8.972979430480287 6.078388554340254 0 0 0
1133 9 5 -0.43 22.832009429125083 9.572007036096387 5.120239971767556 0 0 0
28 5 2 -0.106 16.44754894063798 12.827565892218981 5.28740542502114 0 0 0
29 5 4 0.053 16.550306492408065 11.767537236464348 5.5846808884593555 0 0 0
150 3 4 0.053 21.189210300384527 9.122317556946 2.275593446606453 0 0 0
172 5 2 -0.106 21.5110779736635 12.825635013219198 5.161594683560834 0 0 0
173 5 4 0.053 21.610906955811153 11.786581408278778 5.6149019670500575 0 0 0
174 5 1 0.106 20.210602740886074 12.95823517671547 4.290204068613909 0 0 0
175 5 4 0.053 20.184544188625594 14.044885201245899 3.881344324992078 0 0 0
176 5 3 0.271 20.24416764556074 12.020607648832168 3.1796118089147107 0 0 0
177 5 5 -0.43 20.206347222367267 11.240440937098846 2.3179605485203414 0 0 0
178 5 4 0.053 21.60427795578122 13.558320286118212 6.013996577750203 0 0 0
261 11 5 -0.43 20.315933363017777 11.614498818694539 7.762206201129592 0 0 0
798 3 4 0.053 19.21500882351167 8.728256138345568 2.768060250182488 0 0 0
820 5 2 -0.106 18.975958984475117 12.730672487131416 5.088254576362628 0 0 0
821 5 4 0.053 18.861186940055063 11.600074461909646 5.198032298429623 0 0 0
822 5 1 0.106 17.647673582108485 13.160914044403583 4.415253387973507 0 0 0
823 5 4 0.053 17.529331769556066 12.619390772467781 3.483380384200429 0 0 0
824 5 3 0.271 17.770443670137034 14.577521733981271 4.269965142064608 0 0 0
826 5 4 0.053 19.06702502438812 13.190598507630348 6.177382129704201 0 0 0
881 9 5 -0.43 17.512280909026494 9.505019285169466 4.841682724980109 0 0 0
1074 5 1 0.106 22.882083858222998 13.009338173916653 4.417274181786601 0 0 0
1075 5 4 0.053 22.908443796607997 12.332614606412424 3.5164654877647203 0 0 0
1076 5 3 0.271 22.96361389441404 14.35711382556915 3.9404416910367863 0 0 0
219 8 5 -0.43 20.16941616516898 15.21932468963675 7.109976587491368 0 0 0
234 9 4 0.053 21.421193975408872 9.412140763299249 8.208951083030552 0 0 0
1077 5 5 -0.43 22.982427054221425 15.44505716157287 3.5784330215111435 0 0 0
882 9 4 0.053 19.27616170196125 9.571200917407987 7.898547384663171 0 0 0
135 2 5 -0.43 20.144262541689844 15.191789962244197 1.559996982277069 0 0 0
825 5 5 -0.43 17.829955678223254 15.710631850944695 4.123242667104904 0 0 0
1858 35 4 0.053 21.375304370880293 13.152829124217094 0.6768434295754386 0 0 1
260 11 3 0.271 20.3000707343874 12.21449745796049 8.718714106609927 0 0 0
2506 35 4 0.053 18.973613605817867 12.887594492629896 0.73858071528001 0 0 1
1159 11 4 0.053 22.81441170958222 12.944056730296142 8.845445734910495 0 0 0
907 11 4 0.053 17.619046368813905 12.989241165720838 8.833728384560551 0 0 0
480 9 2 -0.106 26.832418826245075 8.45735059623657 7.8403188592111555 0 0 0
1128 9 2 -0.106 24.32614604838928 8.634336747618987 7.989614061923466 0 0 0
1384 9 3 0.271 28.213789573356244 9.158635362041142 5.897058864230547 0 0 0
1073 5 4 0.053 24.20563179999682 11.641790720677555 5.536670470931712 0 0 0
1078 5 4 0.053 24.049234382054344 13.300246249134558 6.197000632048271 0 0 0
1050 3 4 0.053 23.910969836964924 9.422646552022686 2.2248002107615132 0 0 0
700 11 5 -0.43 30.586765645694772 11.499474215172826 7.870934733209551 0 0 0
402 3 4 0.053 26.655398665103473 9.33596869134113 2.3556310831778635 0 0 0
424 5 2 -0.106 26.74870989211056 12.771328997064392 5.296157821110839 0 0 0
425 5 4 0.053 26.777464533898012 11.68685146147541 5.738842721858052 0 0 0
426 5 1 0.106 25.457779969714743 13.08500965974889 4.449078787421845 0 0 0
427 5 4 0.053 25.495375346583213 14.15300266838636 4.105742234598699 0 0 0
428 5 3 0.271 25.418291334044554 12.222789857411119 3.2772130192732494 0 0 0
429 5 5 -0.43 25.335632207289834 11.51243845779664 2.359723770400442 0 0 0
430 5 4 0.053 26.67021063538136 13.389561684348804 6.175007118177692 0 0 0
513 11 5 -0.43 25.467824550249283 11.658554110673716 7.5872604691915 0 0 0
649 5 1 0.106 30.700486002593998 12.906002719849207 4.7243291313579485 0 0 0
650 5 4 0.053 30.850011520048053 13.973133124039974 4.710443376277271 0 0 0
651 5 3 0.271 30.818353390371932 12.182355754302277 3.4844207898462636 0 0 0
652 5 5 -0.43 30.897774302578494 11.601160407786205 2.512352769340408 0 0 0
1072 5 2 -0.106 24.12404746331926 12.710900320904956 5.223221530597962 0 0 0
1302 3 4 0.053 29.351432403987364 9.29856128071585 2.373747009741648 0 0 0
1324 5 2 -0.106 29.297324232240136 12.628651125189942 5.42632555115236 0 0 0
1325 5 4 0.053 29.216545764897283 11.551134563790544 5.546933430203386 0 0 0