LAMMPS data file via write_data, version 27 Jun 2024, timestep = 1000000, units = real

3024 atoms
5 atom types
3024 bonds
5 bond types
5616 angles
8 angle types
9072 dihedrals
8 dihedral types
3456 impropers
5 improper types

0.3480692437130024 31.493042090287073 xlo xhi
0.5127915333493256 30.947125638652828 ylo yhi
2.489282331777506 32.19136397722033 zlo zhi
0.11686002817732055 0 0.6740896264110018 xy xz yz

Atom Type Labels

1 c1
2 c2
3 ct
4 hpan
5 nt

Bond Type Labels

1 c1-c2
2 c1-ct
3 c1-hpan
4 c2-hpan
5 ct-nt

Angle Type Labels

1 c1-c2-c1
2 c1-c2-hpan
3 c1-ct-nt
4 c2-c1-c2
5 c2-c1-ct
6 c2-c1-hpan
7 ct-c1-hpan
8 hpan-c2-hpan

Dihedral Type Labels

1 hpan-c2-c1-ct
2 c2-c1-c2-hpan
3 hpan-c1-c2-hpan
4 hpan-c1-ct-nt
5 c2-c1-ct-nt
6 c1-c2-c1-c2
7 c1-c2-c1-ct
8 c1-c2-c1-hpan

Improper Type Labels

1 c1-c2-c1-hpan-nb!=3
2 c1-c2-hpan-hpan-nb!=3
3 c2-c1-c2-ct-nb!=3
4 c2-c1-c2-hpan-nb!=3
5 c2-c1-ct-hpan-nb!=3

Masses

1 12.01115
2 12.01115
3 12.01115
4 1.00797
5 14.0067

Pair Coeffs # lj/class2/coul/long

1 0.054 4.01
2 0.054 4.01
3 0.064 4.01
4 0.02 2.3
5 0.065 3.57

Bond Coeffs # morse

1 82.6961 2 1.53
2 82.6961 1.5 1.42
3 98.2315 2 1.101
4 98.2315 2 1.101
5 211.998 1.6 1.158

Angle Coeffs # class2xe

1 112.67 39.516 -7.443 -9.5583
2 110.77 41.453 -10.604 5.129
3 180 200 0 0
4 112.67 39.516 -7.443 -9.5583
5 109.5 46 0 0
6 110.77 41.453 -10.604 5.129
7 109.5 42 0 0
8 107.66 39.641 -12.921 -2.4318

BondBond Coeffs

1 82.6961 0 1.53 1.53
2 90.4638 0.136826 1.53 1.101
3 147.347 0 1.42 1.158
4 82.6961 0 1.53 1.53
5 82.6961 0 1.53 1.42
6 90.4638 0.136826 1.53 1.101
7 90.4638 0 1.42 1.101
8 98.2315 0.164736 1.101 1.101

BondAngle Coeffs

1 82.6961 82.6961 0.220151 0.220151 1.53 1.53
2 82.6961 98.2315 0.354237 0.241108 1.53 1.101
3 82.6961 211.998 0 0 1.42 1.158
4 82.6961 82.6961 0.220151 0.220151 1.53 1.53
5 82.6961 82.6961 0 0 1.53 1.42
6 82.6961 98.2315 0.354237 0.241108 1.53 1.101
7 82.6961 98.2315 0 0 1.42 1.101
8 98.2315 98.2315 0.303553 0.303553 1.101 1.101

Dihedral Coeffs # class2xe

1 0 0 0.0316 0 -0.1681 0
2 0 0 0.0316 0 -0.1681 0
3 -0.1432 0 0.0617 0 -0.1083 0
4 0 0 0 0 0 0
5 0 0 0 0 0 0
6 0 0 0.0514 0 -0.143 0
7 0 0 0.0514 0 -0.143 0
8 0 0 0.0316 0 -0.1681 0

AngleAngleTorsion Coeffs

1 0 110.77 109.5
2 -16.164 112.67 110.77
3 -12.564 110.77 110.77
4 0 109.5 180
5 0 109.5 180
6 -22.045 112.67 112.67
7 0 112.67 109.5
8 -16.164 112.67 110.77

EndBondTorsion Coeffs

1 2 1.5 0 0 0 0 0 0 1.101 1.42
2 2 2 0.2486 0.2422 -0.0925 0.0814 0.0591 0.2219 1.53 1.101
3 2 2 0.213 0.312 0.0777 0.213 0.312 0.0777 1.101 1.101
4 2 1.6 0 0 0 0 0 0 1.101 1.158
5 2 1.6 0 0 0 0 0 0 1.53 1.158
6 2 2 -0.0732 0 0 -0.0732 0 0 1.53 1.53
7 2 1.5 0 0 0 0 0 0 1.53 1.42
8 2 2 0.2486 0.2422 -0.0925 0.0814 0.0591 0.2219 1.53 1.101

MiddleBondTorsion Coeffs

1 2 0 0 0 1.53
2 2 -14.879 -3.6581 -0.3138 1.53
3 2 -14.261 -0.5322 -0.4864 1.53
4 1.5 0 0 0 1.42
5 1.5 0 0 0 1.42
6 2 -17.787 -7.1877 0 1.53
7 2 0 0 0 1.53
8 2 -14.879 -3.6581 -0.3138 1.53

BondBond13 Coeffs

1 90.4638 0 1.101 1.42
2 90.4638 0 1.53 1.101
3 98.2315 0 1.101 1.101
4 155.115 0 1.101 1.158
5 147.347 0 1.53 1.158
6 82.6961 0 1.53 1.53
7 82.6961 0 1.53 1.42
8 90.4638 0 1.53 1.101

AngleTorsion Coeffs

1 0 0 0 0 0 0 110.77 109.5
2 -0.2454 0 -0.1136 0.3113 0.4516 -0.1988 112.67 110.77
3 -0.8085 0.5569 -0.2466 -0.8085 0.5569 -0.2466 110.77 110.77
4 0 0 0 0 0 0 109.5 180
5 0 0 0 0 0 0 109.5 180
6 0.3886 -0.3139 0.1389 0.3886 -0.3139 0.1389 112.67 112.67
7 0 0 0 0 0 0 112.67 109.5
8 -0.2454 0 -0.1136 0.3113 0.4516 -0.1988 112.67 110.77

Improper Coeffs # class2

1 0 0
2 0 0
3 0 0
4 0 0
5 0 0

AngleAngle Coeffs

1 -1.3199 -1.3199 0.1184 112.67 110.77 110.77
2 0.2738 -0.4825 0.2738 110.77 110.77 107.66
3 0 0 0 112.67 109.5 109.5
4 -1.3199 -1.3199 0.1184 112.67 110.77 110.77
5 0 0 0 109.5 109.5 110.77

Atoms # full

1 1 2 -0.106 0.7608061271723154 2.6536822317421747 4.443453048970936 0 0 0
2 1 4 0.053 0.7311279876016609 1.7943984963506738 5.143759654288498 0 0 0
109 1 2 -0.106 6.116694061749318 2.545775412266549 4.448884427885748 0 0 0
110 1 4 0.053 6.06728611557215 1.6612519618294093 5.117456444142594 0 0 0
111 1 1 0.106 4.816422088396126 2.586197962997938 3.5543919897452447 0 0 0
115 1 4 0.053 6.285306333199688 3.42925898121795 5.122342188857928 0 0 0
138 3 4 0.053 5.9695294311822735 6.854507696081617 7.501153058156808 0 0 0
139 3 1 0.106 4.665887889377172 7.648998601334071 6.026151046768842 0 0 0
141 3 3 0.271 4.750766788143708 6.458477400036864 5.17836573624802 0 0 0
142 3 5 -0.43 4.861588114057128 5.538979122847682 4.453117463457641 0 0 0
195 7 1 0.106 4.748671268478561 2.715530906463113 8.530492821328252 0 0 0
196 7 4 0.053 4.794311042247104 3.476812161295637 7.759788582641699 0 0 0
197 7 3 0.271 4.810060241859716 1.5896384923501352 7.720894905344534 0 0 0
757 1 2 -0.106 3.569888033957496 2.5823042478293585 4.49541492713867 0 0 0
758 1 4 0.053 3.706723735415279 1.6953426800647184 5.150995240768811 0 0 0
759 1 1 0.106 2.169151919143677 2.6490987354752056 3.594248772626024 0 0 0
763 1 4 0.053 3.4840604389123633 3.4204823499337342 5.224577475193826 0 0 0
786 3 4 0.053 3.5624659157765337 6.7393164465792355 7.56645104133205 0 0 0
788 3 4 0.053 2.170965405651846 7.190501376972839 5.121413691355086 0 0 0
843 7 1 0.106 2.2619837529156595 2.78669659740647 8.647498300768053 0 0 0
844 7 4 0.053 2.311211944732936 1.7917670206738658 8.197499352473042 0 0 0
845 7 3 0.271 2.1860792824583433 4.017710524582947 7.667039676384941 0 0 0
846 7 5 -0.43 2.0599802482947007 4.908601684069587 6.9115854980562395 0 0 0
1011 1 1 0.106 7.340500595249604 2.6759360140118638 3.497059566899069 0 0 0
1040 3 4 0.053 7.317297890787447 6.940902480825494 5.366366520578035 0 0 0
1095 7 1 0.106 7.216131058882379 2.841486872904938 8.562423288379005 0 0 0
1096 7 4 0.053 7.345268541203346 1.9074883323812601 7.892845982085431 0 0 0
1097 7 3 0.271 7.256792506013963 3.948880861992536 7.666068448139289 0 0 0
1098 7 5 -0.43 7.3056252699285285 4.839200474781152 6.941513445298955 0 0 0
37 7 2 -0.106 0.9473133809118132 2.7700963957720326 9.416053689858 0 0 0
841 7 2 -0.106 3.5239647394936253 2.7966435168205663 9.423625261397365 0 0 0
787 3 1 0.106 2.298737588550418 7.836256101185999 6.01535423100168 0 0 0
14 3 4 0.053 1.0365451848752147 6.851752003418612 7.570532405833342 0 0 0
1039 3 1 0.106 7.317058054436238 7.79650369163265 6.072872352666742 0 0 0
785 3 2 -0.106 3.51016475630804 7.636860161666988 6.964232311412209 0 0 0
13 3 2 -0.106 1.0399327224654977 7.751928919153377 6.943702524203277 0 0 0
137 3 2 -0.106 5.970040383252925 7.723741368532016 6.82955635934321 0 0 0
193 7 2 -0.106 5.953632440015691 2.770665643649906 9.31104004675981 0 0 0
1012 1 4 0.053 7.3649417123025716 1.9462482866372224 2.6939829352953955 0 0 0
760 1 4 0.053 2.1403332756943074 1.8928398416306855 2.796494272347246 0 0 0
113 1 3 0.271 4.7278236490451295 1.3947180079864094 2.7560605970096295 0 0 0
226 9 5 -0.43 4.800185823815724 5.726718934354837 9.43683392831176 0 0 0
112 1 4 0.053 4.832316686589802 3.372739830579024 2.7626431074392035 0 0 0
761 1 3 0.271 2.0794360118431308 3.8728376551516295 2.7314434068469113 0 0 0
1013 1 3 0.271 7.2784294117632635 3.7407959633778627 2.733996314644986 0 0 0
3 1 4 0.053 0.836425465020562 3.5400794652737155 5.10843613834396 0 0 0
1818 33 4 0.053 6.108718973777455 6.751386649806224 2.5046839936953704 0 0 1
1598 33 4 0.053 0.8103500213804236 6.688977917845455 2.515856519847836 0 0 1
2466 33 4 0.053 3.418334984539115 6.929496224286989 2.672830515258054 0 0 1
198 7 5 -0.43 4.877114566697797 0.6936609915121685 6.937600263929386 0 0 0
1038 3 4 0.053 8.705855552704199 7.109941755697749 7.645583956534439 0 0 0
361 1 2 -0.106 11.147375558983727 2.5501465345709664 4.448385948528979 0 0 0
362 1 4 0.053 11.04242905449362 1.6700423105570665 5.113912788399391 0 0 0
363 1 1 0.106 9.82199186520904 2.594068009003671 3.5761181648021774 0 0 0
367 1 4 0.053 11.170689748016658 3.4548340422514183 5.0777650829700125 0 0 0
390 3 4 0.053 11.25162034358762 6.793505882802847 7.4976548645457095 0 0 0
391 3 1 0.106 9.939121222468716 7.79051114002269 6.041789444833283 0 0 0
393 3 3 0.271 9.934417774114202 6.652778034118817 5.206538945400549 0 0 0
394 3 5 -0.43 9.894418260490403 5.7070185217794975 4.518887775269647 0 0 0
447 7 1 0.106 9.934541601915821 2.6418843736404503 8.603554907390112 0 0 0
448 7 4 0.053 9.936760605213445 3.4880697949633994 7.861074784155976 0 0 0
449 7 3 0.271 9.958082469787499 1.4504525719354304 7.763036443180388 0 0 0
613 1 1 0.106 15.113221511898157 2.650463171845741 3.605440236755091 0 0 0
631 3 3 0.271 15.012830016314982 6.530548302507339 5.134649872608827 0 0 0
632 3 5 -0.43 15.001305199469579 5.616731835796053 4.439718097020458 0 0 0
662 7 4 0.053 15.238957806247102 3.618571808527398 7.7704610274456725 0 0 0
663 7 3 0.271 15.070653786945991 1.5887399525204413 7.782655927308093 0 0 0
1009 1 2 -0.106 8.524507203658462 2.6592771874340553 4.424902425470278 0 0 0
1010 1 4 0.053 8.58374825973582 1.7935469076199 5.101248797588573 0 0 0
1015 1 4 0.053 8.428416848808853 3.559815224290808 5.075409627844662 0 0 0
1261 1 2 -0.106 13.82495379381224 2.7437933675852397 4.43885987220335 0 0 0
1262 1 4 0.053 13.847691942164255 1.898993343510621 5.155002209110112 0 0 0
1263 1 1 0.106 12.494147620318518 2.7042512205113307 3.6058934856963956 0 0 0
1267 1 4 0.053 13.834216051999423 3.6519101691903297 5.058681813604268 0 0 0
1290 3 4 0.053 13.643894921546229 7.186223552536186 7.72332974617293 0 0 0
1292 3 4 0.053 12.527459030103627 6.901112937716812 5.5853030864880555 0 0 0
1347 7 1 0.106 12.673849414128716 2.7994918145012972 8.606929005929597 0 0 0
1348 7 4 0.053 12.688924519666768 2.035570832037539 7.799239350524578 0 0 0
1349 7 3 0.271 12.589325173381441 3.8761680410006636 7.768366773346086 0 0 0
1350 7 5 -0.43 12.472556094876612 4.68313902303743 6.929636993523724 0 0 0
661 7 1 0.106 15.216548096664514 2.8468901885244953 8.55514303430256 0 0 0
629 3 1 0.106 15.050823714966777 7.706446389288902 6.011227842209953 0 0 0
1291 3 1 0.106 12.479365671509271 7.878394042632859 6.091553613133041 0 0 0
1289 3 2 -0.106 13.746651488045305 7.862678337010757 6.857268990060709 0 0 0
389 3 2 -0.106 11.185620464771775 7.711706596989974 6.91598712013775 0 0 0
1345 7 2 -0.106 13.894496431060087 2.7364068355094284 9.418822734333151 0 0 0
614 1 4 0.053 15.171270278020746 3.5661818357732074 2.9729513427835617 0 0 0
1037 3 2 -0.106 8.651618522558 7.859753835460354 6.83791291221882 0 0 0
1264 1 4 0.053 12.591416490559105 1.8229015258052002 2.943882720424084 0 0 0
445 7 2 -0.106 11.288294202784936 2.7940905682208066 9.372470597781785 0 0 0
1093 7 2 -0.106 8.572614526571103 2.7636515788048768 9.364244786476366 0 0 0
365 1 3 0.271 9.802096919386193 1.3992219936152444 2.717132551452925 0 0 0
680 9 5 -0.43 14.983668040297957 5.720240172136011 9.583253133492546 0 0 0
615 1 3 0.271 15.082863950757325 1.485643446324476 2.7440538134440535 0 0 0
364 1 4 0.053 9.783346761319118 3.3321445236581786 2.774243066565327 0 0 0
1265 1 3 0.271 12.494727686893519 3.8273226798117266 2.712377922608279 0 0 0
478 9 5 -0.43 9.776978455720405 5.8089005480091584 9.348869403533136 0 0 0
2070 33 4 0.053 11.342667739264863 6.864694293727516 2.552197321956497 0 0 1
2970 33 4 0.053 13.908699160444536 6.825581454516711 2.5357985999651302 0 0 1
664 7 5 -0.43 14.928766768557171 0.6570142340270894 7.109234506211058 0 0 0
2718 33 4 0.053 8.617175661411865 6.933848070047022 2.626103225567867 0 0 1
40 7 2 -0.106 16.521846033708286 2.844319776168461 9.379533928233354 0 0 0
6 1 4 0.053 16.2903512591639 3.6846988150370996 4.943682280883253 0 0 0
4 1 2 -0.106 16.445440718344333 2.7169249458780826 4.410502243131257 0 0 0
5 1 4 0.053 16.510675224468578 1.9647798877441436 5.225969893524657 0 0 0
17 3 4 0.053 16.490903159287267 6.84091983679004 7.482537023988449 0 0 0
116 1 2 -0.106 21.693720296592986 2.8000392457176413 4.348021908269853 0 0 0
117 1 4 0.053 21.838494352523103 1.9736155368097479 5.058254236224037 0 0 0
118 1 1 0.106 20.373300889392507 2.701625532343637 3.6217886059261866 0 0 0
122 1 4 0.053 21.53932980866086 3.7446605220201046 4.848007558065273 0 0 0
145 3 4 0.053 21.705082972132523 7.0319201170340175 7.663107453366278 0 0 0
148 3 3 0.271 20.343170477322847 6.649254412052287 5.21898248005872 0 0 0
149 3 5 -0.43 20.297742187661505 5.705616971066649 4.576386499376912 0 0 0
202 7 1 0.106 20.24151412735408 2.768438788544282 8.551210096716929 0 0 0
203 7 4 0.053 20.238077440492663 3.585231011838638 7.7891798688969365 0 0 0
204 7 3 0.271 20.27465789999461 1.6047042831880458 7.7817508263182225 0 0 0
764 1 2 -0.106 19.061108068780648 2.718859715142445 4.425255868486898 0 0 0
765 1 4 0.053 19.0252349135946 1.9312226858284158 5.195860233985295 0 0 0
770 1 4 0.053 19.191828219261417 3.640392457778572 5.034504796087777 0 0 0
793 3 4 0.053 18.983353715235232 6.866124423554492 7.473720117878435 0 0 0
795 3 4 0.053 17.72292589097098 6.882792502501325 5.4649036339765935 0 0 0
850 7 1 0.106 17.72540519686764 2.8268946467584044 8.523794235764361 0 0 0
851 7 4 0.053 17.779227792145953 2.0444017477375978 7.7370294935609785 0 0 0
852 7 3 0.271 17.77790825135012 4.011969769011257 7.6228867254633075 0 0 0
853 7 5 -0.43 17.83933056319844 4.884470686173246 6.873095480419642 0 0 0
1018 1 1 0.106 23.010273386890645 2.8028305754214573 3.5972464577372456 0 0 0
1047 3 4 0.053 22.86207635290466 6.870891957412852 5.404132325728773 0 0 0
1102 7 1 0.106 22.96603505816937 2.7690105766510573 8.48339689464815 0 0 0
1103 7 4 0.053 22.968250483564645 1.860991662686742 7.822774949549441 0 0 0
1104 7 3 0.271 23.01192341121509 3.891768635905026 7.61046078306085 0 0 0
1105 7 5 -0.43 23.110455113219583 4.7710219163915735 6.858774698502714 0 0 0
766 1 1 0.106 17.749815273902936 2.695437173325103 3.6039886486448314 0 0 0
200 7 2 -0.106 21.61115813763881 2.7190007933974725 9.305039329058673 0 0 0
848 7 2 -0.106 18.971174689703826 2.8643388273381536 9.374078693866597 0 0 0
1046 3 1 0.106 22.92048609727152 7.7453171676176105 6.066106190475157 0 0 0
16 3 2 -0.106 16.363916045661533 7.747351927157044 6.810827935725081 0 0 0
146 3 1 0.106 20.39102529148039 7.745137555153569 6.035334785111875 0 0 0
792 3 2 -0.106 19.08048102880697 7.748745991200781 6.8201785410973885 0 0 0
144 3 2 -0.106 21.631955641558683 7.849058398944061 6.946987292383204 0 0 0
794 3 1 0.106 17.72909360947993 7.8348673553901085 6.030114999275426 0 0 0
119 1 4 0.053 20.325822194185946 3.626980701757206 3.041243537427364 0 0 0
1019 1 4 0.053 22.947640285373716 1.7986592679213347 3.096387224172269 0 0 0
767 1 4 0.053 17.756172686075487 1.7006792956766263 3.1046725390595444 0 0 0
233 9 5 -0.43 20.42153529427063 5.688185457318264 9.471275738277432 0 0 0
768 1 3 0.271 17.749261126055767 3.9073926621794333 2.661754251443588 0 0 0
120 1 3 0.271 20.370084001676844 1.5467318406674622 2.8120307475383246 0 0 0
1020 1 3 0.271 23.045559164933113 3.824830685919156 2.7274623885838003 0 0 0
1601 33 4 0.053 16.4797067119859 6.8287833565939815 2.5894253262458284 0 0 1
2473 33 4 0.053 18.966469198350833 6.961000696158992 2.699532583898083 0 0 1
1825 33 4 0.053 21.72319749407446 6.828156758627074 2.632028473006974 0 0 1
205 7 5 -0.43 20.29298036140799 0.6515330011352657 7.07760247377792 0 0 0
42 7 4 0.053 16.580914839990893 3.8318827020214274 9.89496045451687 0 0 0
201 7 4 0.053 21.574510847091748 1.6615469319781966 9.720543261469327 0 0 0
1045 3 4 0.053 24.27522771940616 6.932384247023329 7.720784254170252 0 0 0
1022 1 4 0.053 24.33772207953261 3.5169296278876705 5.090221519776533 0 0 0
1017 1 4 0.053 24.09970318303194 1.7299541247969041 5.035938605636814 0 0 0
368 1 2 -0.106 26.803438238035238 2.656068313908785 4.4953677090401705 0 0 0
369 1 4 0.053 26.948580699190273 1.788338550375833 5.137416903319782 0 0 0
370 1 1 0.106 25.575583916393434 2.5980785977473704 3.6099684015808258 0 0 0
374 1 4 0.053 26.694461050782415 3.5656383997528094 5.0985091157399784 0 0 0
397 3 4 0.053 26.789679167747003 6.777093530649185 7.515636220178919 0 0 0
400 3 3 0.271 25.52971569648335 6.674096097116441 5.28443749886446 0 0 0
401 3 5 -0.43 25.637154588510636 5.771902134743981 4.568596147671631 0 0 0
454 7 1 0.106 25.62749149657631 2.698392837601913 8.567914722622511 0 0 0
455 7 4 0.053 25.643633407038248 3.510455074947687 7.813165569801507 0 0 0
456 7 3 0.271 25.646041471944336 1.54752857469239 7.77935361172943 0 0 0
617 1 1 0.106 30.61543998537094 2.5869567676728047 3.5427829112259817 0 0 0
633 3 1 0.106 30.89441128610255 7.75397058888587 6.068618787169925 0 0 0
635 3 3 0.271 30.819317610541916 6.584933269075172 5.189097403322619 0 0 0
636 3 5 -0.43 30.74789358627889 5.671959064549029 4.479113826596786 0 0 0
665 7 1 0.106 30.782976782906474 2.8688891036706776 8.57588017299566 0 0 0
666 7 4 0.053 30.85166056532794 3.720709301539278 7.929672286790856 0 0 0
667 7 3 0.271 30.76367394304541 1.4634679154456984 7.689432802683639 0 0 0
1016 1 2 -0.106 24.287844329106893 2.64041458153719 4.425944699607836 0 0 0
1268 1 2 -0.106 29.32175448480024 2.7226038788142786 4.4076941094791575 0 0 0
1269 1 4 0.053 29.30229198283065 1.97346481312283 5.227933585079452 0 0 0
1270 1 1 0.106 28.05021209091292 2.7145744261360627 3.5676794710763966 0 0 0
1274 1 4 0.053 29.29823032721345 3.729670565659749 4.879915702377897 0 0 0
1297 3 4 0.053 29.553311913437536 6.956084878524594 7.6408851884732325 0 0 0
1299 3 4 0.053 28.226588742986088 6.988069143550067 5.341105812215604 0 0 0
1354 7 1 0.106 28.152715538628634 2.8573310175980473 8.599476145845166 0 0 0
1355 7 4 0.053 28.109167114526084 1.9383708004288869 7.979321284205085 0 0 0
1356 7 3 0.271 28.11657544104223 3.936215651775307 7.728095055951517 0 0 0
1357 7 5 -0.43 28.14838677569501 4.809133791554715 6.9573098380665614 0 0 0
452 7 2 -0.106 26.899039176303383 2.8478090740881554 9.411140418406983 0 0 0
1352 7 2 -0.106 29.46197276401077 2.8092928635809895 9.288105862774795 0 0 0
1044 3 2 -0.106 24.156782635356873 7.814244797075986 7.028946240966545 0 0 0
1100 7 2 -0.106 24.28644004735793 2.8282222057942072 9.394933050007847 0 0 0
398 3 1 0.106 25.46077303357206 7.767482328886604 6.122000898768197 0 0 0
1298 3 1 0.106 28.176173755663157 7.8391811460682295 6.063253503077007 0 0 0
1271 1 4 0.053 28.020374024595554 1.7651949107631146 2.9872114805538024 0 0 0
618 1 4 0.053 30.63371535985355 3.376080819454022 2.7750459637890037 0 0 0
1296 3 2 -0.106 29.547197049561884 7.800484114830909 6.922713804397094 0 0 0
396 3 2 -0.106 26.796105900581125 7.755326166865856 6.954809566793991 0 0 0
371 1 4 0.053 25.650333324895534 3.585292905812212 3.123281911277364 0 0 0
372 1 3 0.271 25.584217207365125 1.4495892477222432 2.7617696022804363 0 0 0
619 1 3 0.271 30.72630391346451 1.390222562528327 2.707444103413936 0 0 0
485 9 5 -0.43 25.604358178369463 5.76908880606159 9.573588837918244 0 0 0
684 9 5 -0.43 30.823070755379756 5.7640411837660235 9.611275201861844 0 0 0
1272 1 3 0.271 28.063771969328172 3.848959555533304 2.6593451790799407 0 0 0
2977 33 4 0.053 29.402653203689127 6.784355642615028 2.5805806066363735 0 0 1
2077 33 4 0.053 27.0245384377471 6.884089903839821 2.6869810579293416 0 0 1
2725 33 4 0.053 24.27526923917671 6.7460360610887085 2.5448490660874263 0 0 1
1353 7 4 0.053 29.602647922256487 1.9105510003445216 9.900456856161185 0 0 0
457 7 5 -0.43 25.600128435454906 0.6277469358202894 7.053248612539192 0 0 0
140 3 4 0.053 4.6777305440792105 8.534206036246376 5.406422466109287 0 0 0
791 3 4 0.053 3.3990470820695715 8.503264707986645 7.6444261582438395 0 0 0
15 3 4 0.053 1.1406091381077035 8.671062055522038 7.567960522636728 0 0 0
143 3 4 0.053 5.944479667520481 8.627496795545971 7.429251597471668 0 0 0
1041 3 3 0.271 7.234483250029774 8.994893820731049 5.232232679891908 0 0 0
25 5 2 -0.106 0.9975410628315945 12.880116325435608 4.444558407014955 0 0 0
26 5 4 0.053 1.0013889892525238 12.13301499908075 5.234293493486867 0 0 0
165 5 2 -0.106 6.150799028346405 12.786638191531843 4.354955473276531 0 0 0
166 5 4 0.053 6.148783228511102 11.912094384493525 5.01998197311303 0 0 0
167 5 1 0.106 4.821872762765235 12.704693235212167 3.6150105450052052 0 0 0
171 5 4 0.053 5.967931849744215 13.701844219413914 5.005722148087536 0 0 0
252 11 4 0.053 4.861453156707732 13.617881018729042 7.719839505804723 0 0 0
789 3 3 0.271 2.3325292199742904 9.020561043327843 5.298382785006597 0 0 0
790 3 5 -0.43 2.296049443777277 10.007299338590471 4.641852112291014 0 0 0
813 5 2 -0.106 3.5178079860438554 12.839625395277018 4.464649253466852 0 0 0
814 5 4 0.053 3.3232194785039058 12.213169918290838 5.338934713842882 0 0 0
815 5 1 0.106 2.260802485779536 12.836005991623047 3.551169696621458 0 0 0
819 5 4 0.053 3.4979710693493864 13.82544176717896 4.958670114565857 0 0 0
900 11 4 0.053 2.242079937758752 12.069970743220795 7.954171594848438 0 0 0
901 11 3 0.271 2.2769147314024485 14.062319316212042 7.627112620466969 0 0 0
902 11 5 -0.43 2.384923016883467 15.004473773728607 6.926070147776147 0 0 0
1042 3 5 -0.43 7.228760336633169 9.902004270997956 4.406159460952745 0 0 0
1067 5 1 0.106 7.498671107861439 12.823566603165453 3.581950217957043 0 0 0
1151 11 1 0.106 7.521825712677027 12.973582723394504 8.491498666208653 0 0 0
1152 11 4 0.053 7.377268929472886 12.168591233742715 7.722927423344879 0 0 0
1153 11 3 0.271 7.511580181617467 14.165644912101389 7.592404654306793 0 0 0
1154 11 5 -0.43 7.4650006258812205 15.063303747930359 6.9281692850803305 0 0 0
251 11 1 0.106 4.837010708176427 12.862394317163226 8.528264980912859 0 0 0
899 11 1 0.106 2.2164125252976916 13.006046005481322 8.531543812361694 0 0 0
253 11 3 0.271 4.939958201244666 11.71281820941209 7.756185473523906 0 0 0
254 11 5 -0.43 5.008378215370315 10.781038576928848 7.103741652998222 0 0 0
249 11 2 -0.106 6.159789891870161 12.969193111467444 9.404637706879896 0 0 0
27 5 4 0.053 0.8963525935064968 13.866787975448847 4.974780333310372 0 0 0
61 11 2 -0.106 0.8814439152081042 12.883176942574623 9.36663226344714 0 0 0
897 11 2 -0.106 3.495770418809216 12.988445010337397 9.381556904760416 0 0 0
168 5 4 0.053 4.758885641200262 13.70235807889208 3.136699628447438 0 0 0
1068 5 4 0.053 7.524141593978438 11.782829995816979 3.119783729584973 0 0 0
816 5 4 0.053 2.2959915826654482 11.83122851484244 3.0912349535152206 0 0 0
169 5 3 0.271 4.885400580537827 11.557476841904462 2.667498981941106 0 0 0
874 9 5 -0.43 2.5305431013238446 9.998499261687742 9.453741086309986 0 0 0
817 5 3 0.271 2.3928319098861843 14.045669737061644 2.667114763721932 0 0 0
128 2 5 -0.43 4.903197553773408 15.859300028136753 4.465559272975398 0 0 0
1069 5 3 0.271 7.405643251002467 13.925811725101687 2.748627763035216 0 0 0
1126 9 5 -0.43 7.436593883206706 10.122121454312376 9.400165575203323 0 0 0
212 8 5 -0.43 4.579184813663624 15.94617910955184 9.483455455689121 0 0 0
2471 33 4 0.053 3.385563460473565 8.66055398188935 2.6092609143777565 0 0 1
1823 33 4 0.053 6.1454311996094 8.511329300062409 2.6291961995297077 0 0 1
1599 33 4 0.053 0.6982081296448037 8.416644535691749 2.6782358354532185 0 0 1
392 3 4 0.053 9.983420527572072 8.776522942715866 5.506628321235597 0 0 0
1043 3 4 0.053 8.643219376935193 8.840551959057631 7.383910385692371 0 0 0
630 3 4 0.053 15.118379746063626 8.675414653406865 5.494368135382757 0 0 0
1295 3 4 0.053 13.940725088939072 8.849083296477852 7.323936717356849 0 0 0
395 3 4 0.053 11.127795982706271 8.563756974824521 7.618864070517991 0 0 0
1071 5 4 0.053 8.998557297587446 13.475042883499059 5.164135174808312 0 0 0
1066 5 4 0.053 8.68751472072159 11.754599808538474 4.810955267655924 0 0 0
417 5 2 -0.106 11.478176296525243 12.892462286175993 4.396447283456336 0 0 0
418 5 4 0.053 11.656199596015405 12.005870313667609 5.086193839769427 0 0 0
419 5 1 0.106 10.189833634030139 12.72787599959019 3.6346561025137696 0 0 0
423 5 4 0.053 11.45906416431977 13.824059430528601 5.011662060681482 0 0 0
503 11 1 0.106 10.154100889290275 12.964586222783446 8.4852095469906 0 0 0
504 11 4 0.053 10.099366297529548 13.739207748876636 7.708215141530763 0 0 0
505 11 3 0.271 10.15551641642482 11.703050423918521 7.659689281971438 0 0 0
506 11 5 -0.43 10.182589784711231 10.748606533183635 7.023955109825528 0 0 0
645 5 1 0.106 15.087366367848233 12.74725922234203 3.584393755661794 0 0 0
693 11 1 0.106 15.12435292605756 12.865896211241415 8.458616584915152 0 0 0
694 11 4 0.053 15.020885547892748 13.642749412373007 7.697893074978815 0 0 0
695 11 3 0.271 15.198436148181543 11.629718181084467 7.686122642180796 0 0 0
696 11 5 -0.43 15.242371833600144 10.689314842766798 7.000237160713803 0 0 0
1065 5 2 -0.106 8.821502481875525 12.72505798635885 4.355247686157418 0 0 0
1293 3 3 0.271 12.3905727246313 9.05481966075883 5.159280551905049 0 0 0
1294 3 5 -0.43 12.377090836909918 9.93222312833242 4.457818110130671 0 0 0
1317 5 2 -0.106 13.84439286696715 12.815148516128001 4.426292999177237 0 0 0
1318 5 4 0.053 13.866845035245285 11.945734478206116 5.101117301935766 0 0 0
1319 5 1 0.106 12.66487983393168 12.784395211583252 3.521298659754394 0 0 0
1323 5 4 0.053 13.692625751085417 13.731552395058298 5.024115185619105 0 0 0
1403 11 1 0.106 12.584529392834407 12.901701686586616 8.460591870818483 0 0 0
1404 11 4 0.053 12.483139167675786 12.172650448149676 7.6707487710846705 0 0 0
1405 11 3 0.271 12.636091223092672 14.062504537791071 7.699646867338618 0 0 0
1406 11 5 -0.43 12.631067141493913 15.033509419570406 7.05216896547987 0 0 0
1149 11 2 -0.106 8.879560124546252 12.863000885753367 9.381767839909482 0 0 0
1401 11 2 -0.106 13.842761531040017 12.918060940917487 9.329339591729756 0 0 0
1320 5 4 0.053 12.630820165481751 11.907355535095327 2.872320400219246 0 0 0
501 11 2 -0.106 11.4184458576674 12.996484174252455 9.429437727902425 0 0 0
646 5 4 0.053 15.262969416537187 13.561019778469793 2.855544533021487 0 0 0
420 5 4 0.053 10.143255170739765 13.651197210528569 3.1025462416732044 0 0 0
1378 9 5 -0.43 12.263842165453752 10.082756588854467 9.510247055657096 0 0 0
421 5 3 0.271 10.280119759304682 11.550847954554573 2.773931727096242 0 0 0
647 5 3 0.271 15.18396471998577 11.553403082245397 2.8152294733676935 0 0 0
1321 5 3 0.271 12.531956177240446 14.002823185236768 2.7415285455921103 0 0 0
624 2 5 -0.43 15.261951658990526 15.851971147333751 4.58139755650722 0 0 0
380 2 5 -0.43 10.137936661955363 15.816315560059069 4.474503592596431 0 0 0
672 8 5 -0.43 15.38645733659541 15.945651099310282 9.434527010149836 0 0 0
2975 33 4 0.053 13.945139989174285 8.612079184206413 2.5899411254077203 0 0 1
2075 33 4 0.053 11.411603925597184 8.650947386160917 2.5508750283702564 0 0 1
2723 33 4 0.053 8.649871627510262 8.704088709182857 2.548082407963828 0 0 1
464 8 5 -0.43 9.988362165739781 15.90655224953483 9.535338431417538 0 0 0
18 3 4 0.053 16.27875541412414 8.543398539729402 7.588839368092302 0 0 0
147 3 4 0.053 20.466762384757683 8.726797372914241 5.527021811727087 0 0 0
150 3 4 0.053 21.60564146848745 8.815381342935204 7.479717021334005 0 0 0
798 3 4 0.053 19.205240401648734 8.56682966700102 7.52809586175418 0 0 0
30 5 4 0.053 16.412628547743456 13.508842816890418 5.294161271172156 0 0 0
28 5 2 -0.106 16.348170105147926 12.781665727847072 4.488470944451113 0 0 0
29 5 4 0.053 16.28696360793848 11.900622556549491 5.125557663545019 0 0 0
172 5 2 -0.106 21.72389884447988 12.829865744980577 4.45865208337016 0 0 0
173 5 4 0.053 21.494219258244115 11.939770340104989 5.068383086394176 0 0 0
174 5 1 0.106 20.358312681962758 12.796183020664326 3.575435557459566 0 0 0
178 5 4 0.053 21.951223600727083 13.688503892902936 5.108026943985934 0 0 0
258 11 1 0.106 20.25881162183946 12.857044576288295 8.53170305741834 0 0 0
259 11 4 0.053 20.257452564929544 13.707995166028404 7.830458621555438 0 0 0
260 11 3 0.271 20.205897724723794 11.648113304384207 7.7513832489043635 0 0 0
261 11 5 -0.43 20.19341851591265 10.778714135785743 6.980151210761524 0 0 0
796 3 3 0.271 17.76101107151838 8.909665951802813 5.176729014060747 0 0 0
797 3 5 -0.43 17.72502335638998 9.850228734591147 4.508881395728615 0 0 0
820 5 2 -0.106 18.973802444722715 12.921278394861918 4.381984004993541 0 0 0
821 5 4 0.053 19.02600968974928 12.17147338438706 5.212038662505925 0 0 0
822 5 1 0.106 17.65471508149867 12.955242716178004 3.565353535280175 0 0 0
826 5 4 0.053 18.883700907134646 13.879037848087602 4.9782567453552495 0 0 0
906 11 1 0.106 17.749230615399355 12.943009828299926 8.515821403097561 0 0 0
907 11 4 0.053 17.90144435165973 11.973477973100657 7.98345947727296 0 0 0
908 11 3 0.271 17.694658179661346 14.090038452676227 7.642884789451357 0 0 0
909 11 5 -0.43 17.64813212168876 14.91813458768335 6.8236787213099435 0 0 0
1048 3 3 0.271 22.97727956446461 8.924114237931347 5.178336262055975 0 0 0
1049 3 5 -0.43 23.02505247734239 9.878913121237256 4.470855347322578 0 0 0
1074 5 1 0.106 22.998672019291874 12.90559404099452 3.5153368924780013 0 0 0
1158 11 1 0.106 22.920274404585815 12.971391014729338 8.62013675133199 0 0 0
1159 11 4 0.053 22.912739173422715 12.005263297938528 8.146953286711607 0 0 0
1160 11 3 0.271 22.83402450439575 14.14512045360333 7.658366333240616 0 0 0
256 11 2 -0.106 21.556948171697258 12.898368286720512 9.306072854591084 0 0 0
904 11 2 -0.106 19.018962775753 13.027211725381678 9.367696621954146 0 0 0
64 11 2 -0.106 16.44444808968502 12.841747504931565 9.314444333784483 0 0 0
1133 9 5 -0.43 22.894823357268294 9.988369414619253 9.4604399505461 0 0 0
823 5 4 0.053 17.51842036773752 12.13766357785392 2.7733361700676795 0 0 0
135 2 5 -0.43 20.451584460433406 15.817437283976416 4.617008345680764 0 0 0
1075 5 4 0.053 23.104052121905543 12.137754010550472 2.7502513046928874 0 0 0
1161 11 5 -0.43 22.799594869551225 15.040861294633771 6.931521103128409 0 0 0
881 9 5 -0.43 17.77623339478542 10.00591612149063 9.485618358465342 0 0 0
176 5 3 0.271 20.225293870253168 11.588491927434815 2.766708525471284 0 0 0
824 5 3 0.271 17.613751898208722 14.049098943928964 2.646115726470884 0 0 0
1076 5 3 0.271 22.854953643276737 14.04093881875982 2.689341901875411 0 0 0
175 5 4 0.053 20.436688453750637 13.5329379886742 2.7554929504582737 0 0 0
219 8 5 -0.43 20.57320987934283 15.843555034802348 9.598828702057073 0 0 0