LAMMPS data file via write_data, version 27 Jun 2024, timestep = 1000000, units = real

3024 atoms
5 atom types
3024 bonds
5 bond types
5616 angles
8 angle types
9072 dihedrals
8 dihedral types
3456 impropers
5 improper types

0.5089706811511654 31.332140652847542 xlo xhi
0.7380222144214041 30.72189495758046 ylo yhi
0.7087642450527376 33.97188206394583 zlo zhi
0.11513037219791568 0 0.7549074485052994 xy xz yz

Atom Type Labels

1 c1
2 c2
3 ct
4 hpan
5 nt

Bond Type Labels

1 c1-c2
2 c1-ct
3 c1-hpan
4 c2-hpan
5 ct-nt

Angle Type Labels

1 c1-c2-c1
2 c1-c2-hpan
3 c1-ct-nt
4 c2-c1-c2
5 c2-c1-ct
6 c2-c1-hpan
7 ct-c1-hpan
8 hpan-c2-hpan

Dihedral Type Labels

1 hpan-c2-c1-ct
2 c2-c1-c2-hpan
3 hpan-c1-c2-hpan
4 hpan-c1-ct-nt
5 c2-c1-ct-nt
6 c1-c2-c1-c2
7 c1-c2-c1-ct
8 c1-c2-c1-hpan

Improper Type Labels

1 c1-c2-c1-hpan-nb!=3
2 c1-c2-hpan-hpan-nb!=3
3 c2-c1-c2-ct-nb!=3
4 c2-c1-c2-hpan-nb!=3
5 c2-c1-ct-hpan-nb!=3

Masses

1 12.01115
2 12.01115
3 12.01115
4 1.00797
5 14.0067

Pair Coeffs # lj/class2/coul/long

1 0.054 4.01
2 0.054 4.01
3 0.064 4.01
4 0.02 2.3
5 0.065 3.57

Bond Coeffs # class2

1 1.53 299.67 -501.77 679.81
2 1.42 311.149 0 0
3 1.101 345 -691.89 844.6
4 1.101 345 -691.89 844.6
5 1.158 880 0 0

Angle Coeffs # class2

1 112.67 39.516 -7.443 -9.5583
2 110.77 41.453 -10.604 5.129
3 180 200 0 0
4 112.67 39.516 -7.443 -9.5583
5 109.5 46 0 0
6 110.77 41.453 -10.604 5.129
7 109.5 42 0 0
8 107.66 39.641 -12.921 -2.4318

BondBond Coeffs

1 0 1.53 1.53
2 3.3872 1.53 1.101
3 0 1.42 1.158
4 0 1.53 1.53
5 0 1.53 1.42
6 3.3872 1.53 1.101
7 0 1.42 1.101
8 5.3316 1.101 1.101

BondAngle Coeffs

1 8.016 8.016 1.53 1.53
2 20.754 11.421 1.53 1.101
3 0 0 1.42 1.158
4 8.016 8.016 1.53 1.53
5 0 0 1.53 1.42
6 20.754 11.421 1.53 1.101
7 0 0 1.42 1.101
8 18.103 18.103 1.101 1.101

Dihedral Coeffs # class2

1 0 0 0.0316 0 -0.1681 0
2 0 0 0.0316 0 -0.1681 0
3 -0.1432 0 0.0617 0 -0.1083 0
4 0 0 0 0 0 0
5 0 0 0 0 0 0
6 0 0 0.0514 0 -0.143 0
7 0 0 0.0514 0 -0.143 0
8 0 0 0.0316 0 -0.1681 0

AngleAngleTorsion Coeffs

1 0 110.77 109.5
2 -16.164 112.67 110.77
3 -12.564 110.77 110.77
4 0 109.5 180
5 0 109.5 180
6 -22.045 112.67 112.67
7 0 112.67 109.5
8 -16.164 112.67 110.77

EndBondTorsion Coeffs

1 0 0 0 0 0 0 1.101 1.42
2 0.2486 0.2422 -0.0925 0.0814 0.0591 0.2219 1.53 1.101
3 0.213 0.312 0.0777 0.213 0.312 0.0777 1.101 1.101
4 0 0 0 0 0 0 1.101 1.158
5 0 0 0 0 0 0 1.53 1.158
6 -0.0732 0 0 -0.0732 0 0 1.53 1.53
7 0 0 0 0 0 0 1.53 1.42
8 0.2486 0.2422 -0.0925 0.0814 0.0591 0.2219 1.53 1.101

MiddleBondTorsion Coeffs

1 0 0 0 1.53
2 -14.879 -3.6581 -0.3138 1.53
3 -14.261 -0.5322 -0.4864 1.53
4 0 0 0 1.42
5 0 0 0 1.42
6 -17.787 -7.1877 0 1.53
7 0 0 0 1.53
8 -14.879 -3.6581 -0.3138 1.53

BondBond13 Coeffs

1 0 1.101 1.42
2 0 1.53 1.101
3 0 1.101 1.101
4 0 1.101 1.158
5 0 1.53 1.158
6 0 1.53 1.53
7 0 1.53 1.42
8 0 1.53 1.101

AngleTorsion Coeffs

1 0 0 0 0 0 0 110.77 109.5
2 -0.2454 0 -0.1136 0.3113 0.4516 -0.1988 112.67 110.77
3 -0.8085 0.5569 -0.2466 -0.8085 0.5569 -0.2466 110.77 110.77
4 0 0 0 0 0 0 109.5 180
5 0 0 0 0 0 0 109.5 180
6 0.3886 -0.3139 0.1389 0.3886 -0.3139 0.1389 112.67 112.67
7 0 0 0 0 0 0 112.67 109.5
8 -0.2454 0 -0.1136 0.3113 0.4516 -0.1988 112.67 110.77

Improper Coeffs # class2

1 0 0
2 0 0
3 0 0
4 0 0
5 0 0

AngleAngle Coeffs

1 -1.3199 -1.3199 0.1184 112.67 110.77 110.77
2 0.2738 -0.4825 0.2738 110.77 110.77 107.66
3 0 0 0 112.67 109.5 109.5
4 -1.3199 -1.3199 0.1184 112.67 110.77 110.77
5 0 0 0 109.5 109.5 110.77

Atoms # full

1 1 2 -0.106 0.9905483775308859 2.7981174418460855 3.248981461945761 0 0 0
109 1 2 -0.106 6.070464030575868 2.8416122981490433 3.741890751897587 0 0 0
110 1 4 0.053 6.2255047990698404 1.818924715020889 3.9941657587735837 0 0 0
111 1 1 0.106 4.845513744110144 2.8989815305861826 2.7665118918563665 0 0 0
112 1 4 0.053 4.786834238777475 3.929157538673201 2.408899155507054 0 0 0
113 1 3 0.271 4.935972200732974 1.9982116181884486 1.6199727927595555 0 0 0
115 1 4 0.053 5.896936793638376 3.4351533267998775 4.67753762060944 0 0 0
141 3 3 0.271 4.871343641874708 6.386635917728293 5.365573704182535 0 0 0
142 3 5 -0.43 4.794835716057049 5.271242074449939 5.581661052697705 0 0 0
196 7 4 0.053 5.006769369953981 4.092811977799034 8.104863157982992 0 0 0
757 1 2 -0.106 3.4633839159788193 2.61099554289586 3.3945586557817924 0 0 0
758 1 4 0.053 3.3199079567887817 1.5114445114409247 3.517161541477235 0 0 0
759 1 1 0.106 2.3376601337101954 3.2038309957202378 2.541000111357876 0 0 0
760 1 4 0.053 2.323572870777123 2.6921513625718703 1.5787879443483783 0 0 0
761 1 3 0.271 2.536746781148925 4.573727871695351 2.396881995591963 0 0 0
763 1 4 0.053 3.3261872640433463 3.0381047781192043 4.447527814698952 0 0 0
788 3 4 0.053 2.5815871999601363 6.915512071877822 4.754372126073753 0 0 0
844 7 4 0.053 2.3022617117525375 2.6822830797918633 7.306572431336101 0 0 0
1011 1 1 0.106 7.412124039426132 3.337626254779506 3.0612423660519474 0 0 0
1012 1 4 0.053 7.396459128072887 2.873592219362556 2.0294212839162116 0 0 0
1013 1 3 0.271 7.23443235370223 4.723287881680976 2.846671734373511 0 0 0
1040 3 4 0.053 7.709551556691208 7.21278554649398 4.530933840169721 0 0 0
1096 7 4 0.053 7.506862740311495 2.698738089596081 7.409266486614633 0 0 0
195 7 1 0.106 4.957616430725327 3.022074687985989 8.320711223373479 0 0 0
197 7 3 0.271 5.053089341994412 2.327385585697214 7.089300985537181 0 0 0
1095 7 1 0.106 7.534096747415358 3.133436762658244 8.423502539238623 0 0 0
845 7 3 0.271 2.3420458806299447 4.63653323527495 8.131606846813892 0 0 0
1014 1 5 -0.43 6.988565025732293 5.825237027341102 2.6957901017467183 0 0 0
762 1 5 -0.43 2.7548012271332682 5.713886457681216 2.3573717764936495 0 0 0
843 7 1 0.106 2.3824718012075206 3.21040023803721 8.274862679939591 0 0 0
1097 7 3 0.271 7.682994989303352 4.445399343814547 8.139754794929328 0 0 0
198 7 5 -0.43 5.106596077697206 1.7001988352303055 6.070831091620526 0 0 0
2 1 4 0.053 1.1204329685930996 1.7453453902194043 3.5742904511474043 0 0 0
846 7 5 -0.43 2.315591663856299 5.803797420901802 7.973187582249522 0 0 0
1598 33 4 0.053 1.0468476307913313 7.541584133321886 1.432008421389426 0 0 1
2466 33 4 0.053 3.3919446873327352 7.697917209712856 1.360243697123757 0 0 1
1039 3 1 0.106 7.567407298301404 8.223043341577412 5.057227793276184 0 0 0
1098 7 5 -0.43 7.821445377400157 5.515427228092319 7.851452414876628 0 0 0
1818 33 4 0.053 6.176459937089129 7.52986206931352 1.142804500875347 0 0 1
138 3 4 0.053 6.433261694456268 8.000297972662345 6.809156024426626 0 0 0
139 3 1 0.106 4.978815016398858 7.785277126214918 5.1947610015697725 0 0 0
787 3 1 0.106 2.4168578017523528 7.975909846740415 4.945373999514984 0 0 0
14 3 4 0.053 1.175533436076969 7.676619725173504 6.615936645987845 0 0 0
3 1 4 0.053 0.9349926222746425 3.3417420012667303 4.22074949889719 0 0 0
786 3 4 0.053 3.4748487524567717 8.120470176176582 6.751795699548014 0 0 0
13 3 2 -0.106 1.0786683281269007 8.269778037312076 5.681921823964259 0 0 0
140 3 4 0.053 4.953464957880464 7.999377055722074 4.043049361696075 0 0 0
841 7 2 -0.106 3.5667007688873347 2.6942741955860585 8.982049262537533 0 0 0
1010 1 4 0.053 8.481421331311415 1.9988127892430134 4.297950354543627 0 0 0
1015 1 4 0.053 8.748618854577066 3.6638627388584455 4.610396602754483 0 0 0
1009 1 2 -0.106 8.67530674411896 2.9414116013329394 3.8001479863278362 0 0 0
361 1 2 -0.106 11.353296495574735 2.9081605973647036 3.6778068562036403 0 0 0
363 1 1 0.106 9.95674134443823 3.0225995929605896 2.9377185493898534 0 0 0
364 1 4 0.053 9.910234044265119 3.9295377276120713 2.352390036572398 0 0 0
365 1 3 0.271 9.870159183452811 1.9660185041317342 1.9200721510992704 0 0 0
367 1 4 0.053 11.301406305161713 3.5536078469868513 4.583945661927665 0 0 0
393 3 3 0.271 9.99996433204951 6.460106583869692 5.451245014749614 0 0 0
394 3 5 -0.43 9.962922531727717 5.295297813776879 5.400911888462142 0 0 0
448 7 4 0.053 9.992536561798124 3.8258269758383836 7.899445495774399 0 0 0
449 7 3 0.271 9.987279868275653 1.7867238384056716 7.01913724707534 0 0 0
613 1 1 0.106 15.095766622283191 2.8329569475243814 2.695376355348972 0 0 0
614 1 4 0.053 15.246031265927568 3.7841390210352723 2.18118665858087 0 0 0
615 1 3 0.271 15.052447614422745 1.7656502661680569 1.7449174329204398 0 0 0
631 3 3 0.271 15.068759245343097 6.353400136256521 5.022915385696211 0 0 0
661 7 1 0.106 15.18806016448597 2.762936468784817 8.155465395564727 0 0 0
662 7 4 0.053 15.31666817851366 3.8067771399761137 7.73446433501373 0 0 0
663 7 3 0.271 15.02416911418772 1.9019224858673789 7.000798213358945 0 0 0
1261 1 2 -0.106 13.886299661203973 2.8040640528997094 3.546518809910484 0 0 0
1262 1 4 0.053 13.80926690625022 1.7439420369414271 3.932809313991214 0 0 0
1263 1 1 0.106 12.551564203982188 3.2207623892058086 2.85193381365116 0 0 0
1264 1 4 0.053 12.584144305485909 2.7182186110155584 1.897208823773206 0 0 0
1265 1 3 0.271 12.487454847051989 4.562215329046587 2.5123931327489535 0 0 0
1267 1 4 0.053 14.051288295976942 3.453099445014856 4.384558845572746 0 0 0
1292 3 4 0.053 12.517075445168953 7.175394379589662 4.701999703888395 0 0 0
1348 7 4 0.053 12.803145565445366 2.6303156819832365 7.22372664804218 0 0 0
450 7 5 -0.43 9.85198569151275 1.0176505595643173 6.191567094941815 0 0 0
447 7 1 0.106 10.034880971274278 2.7314265294160203 8.203487216399028 0 0 0
629 3 1 0.106 15.07600425996913 7.744296709587836 5.2341453065656856 0 0 0
1266 1 5 -0.43 12.51780748797672 5.697570577308428 2.2317310960479357 0 0 0
632 3 5 -0.43 15.090273395167928 5.242067690322694 4.8484722850735515 0 0 0
1347 7 1 0.106 12.647018328867482 3.0720596291236766 8.198524602412816 0 0 0
1349 7 3 0.271 12.68274373721202 4.497963169540389 8.198634144895124 0 0 0
1350 7 5 -0.43 12.690297644940435 5.651795001552184 8.27608491294237 0 0 0
362 1 4 0.053 11.436153446039052 1.894184040146335 4.070994112811389 0 0 0
391 3 1 0.106 10.076571545431577 7.852021305765285 5.4462275665598385 0 0 0
1291 3 1 0.106 12.559953320011557 8.075387476174551 5.373272708842024 0 0 0
664 7 5 -0.43 14.938487925373643 1.231999646090693 6.079521678721089 0 0 0
1290 3 4 0.053 13.882447658635858 7.460690123727182 7.0965850024617945 0 0 0
1038 3 4 0.053 8.448078417972688 8.094931066244456 6.973009465779539 0 0 0
2718 33 4 0.053 8.399769401274924 7.4515881115700395 1.119015069815544 0 0 1
2070 33 4 0.053 11.369100868327115 8.203014845307024 1.39183490215889 0 0 1
390 3 4 0.053 11.384207188339664 7.375571204448698 7.087169679959994 0 0 0
630 3 4 0.053 14.886172960186867 8.242346179589564 4.280405619813857 0 0 0
1289 3 2 -0.106 13.848777226150641 8.078087944139881 6.163446285766299 0 0 0
389 3 2 -0.106 11.289446864428358 8.135910634645388 6.253608410059817 0 0 0
392 3 4 0.053 10.16167029885324 8.156506134474697 4.388450215080558 0 0 0
445 7 2 -0.106 11.31180574216439 2.54051689543585 8.95796436287945 0 0 0
366 1 5 -0.43 9.751053694063708 1.1570414212868059 1.1474463640868 0 0 0
616 1 5 -0.43 15.10396441328079 0.918421981807588 0.9877212305752718 0 0 0
785 3 2 -0.106 3.652427101616764 8.415500432138767 5.714169757614575 0 0 0
137 3 2 -0.106 6.2287745497983895 8.429304555435689 5.840496026972275 0 0 0
25 5 2 -0.106 1.104249100713736 12.584758066267202 3.5145362890808145 0 0 0
1041 3 3 0.271 7.7035603545612235 9.046643091821814 3.946238803179707 0 0 0
789 3 3 0.271 2.3472549579334654 8.689951408442091 3.722696810239897 0 0 0
26 5 4 0.053 1.107539330839085 11.676489351917573 4.109135051020479 0 0 0
790 3 5 -0.43 2.229492241190707 9.341818304130067 2.761781366069686 0 0 0
143 3 4 0.053 6.248815776457322 9.55523783077697 5.897007634399434 0 0 0
791 3 4 0.053 3.773379820957153 9.537193357362952 5.6039828002081284 0 0 0
165 5 2 -0.106 6.352213463711912 12.735610317877814 3.456496093924655 0 0 0
166 5 4 0.053 6.5428036750678995 11.692658563786125 3.7409628926039904 0 0 0
167 5 1 0.106 5.01303435782886 12.778887230437853 2.6551903638920242 0 0 0
168 5 4 0.053 4.912903750537883 13.752577277203283 2.0931656434477572 0 0 0
169 5 3 0.271 5.0424828512758815 11.835535392970254 1.603457359225411 0 0 0
171 5 4 0.053 6.284905685498074 13.283392462773481 4.435841800629703 0 0 0
252 11 4 0.053 4.8225489317405605 14.041818435541597 8.216644590119728 0 0 0
813 5 2 -0.106 3.6784215740340525 12.559547003345877 3.463566037879808 0 0 0
814 5 4 0.053 3.6681233533818065 11.517645210019989 3.7804017847446327 0 0 0
815 5 1 0.106 2.3882957705229337 12.906963163564225 2.748258582400852 0 0 0
816 5 4 0.053 2.438805877990165 12.433741811653679 1.7851510570818296 0 0 0
819 5 4 0.053 3.7375461810750883 13.08820237965893 4.441636944778141 0 0 0
900 11 4 0.053 2.4199238083277583 12.67282277350762 7.42281745933476 0 0 0
901 11 3 0.271 2.2608637995455165 14.623592922185859 8.16587928732489 0 0 0
1042 3 5 -0.43 7.820971513158445 9.783408714786287 3.0884775064105927 0 0 0
1067 5 1 0.106 7.464763593504225 13.320994654080824 2.593611166250812 0 0 0
1068 5 4 0.053 7.480803222962161 12.92549825664927 1.5653625977725754 0 0 0
1152 11 4 0.053 7.258812656767783 12.793257221051766 7.39975265495516 0 0 0
251 11 1 0.106 4.755378453186758 13.01797582836259 8.542033106818785 0 0 0
899 11 1 0.106 2.2515427597422972 13.209326913854824 8.371064789896273 0 0 0
1151 11 1 0.106 7.348758475968742 13.052357746641546 8.48030131825607 0 0 0
817 5 3 0.271 2.4733204413070844 14.31536008160175 2.485975948941475 0 0 0
1069 5 3 0.271 7.258640608657141 14.741213426101563 2.6777599456563443 0 0 0
253 11 3 0.271 4.6600546912321255 12.09777938784735 7.354010959677356 0 0 0
254 11 5 -0.43 4.619679763722551 11.36321783112273 6.435236241140643 0 0 0
128 2 5 -0.43 5.022299532368069 15.11738514070984 5.079446655029142 0 0 0
1153 11 3 0.271 7.401844470788157 14.527423718467695 8.44966670283009 0 0 0
818 5 5 -0.43 2.472927709935467 15.447044638682371 2.3157008835631925 0 0 0
15 3 4 0.053 0.9756843281596598 9.330048970696364 6.02753601725409 0 0 0
27 5 4 0.053 0.9663622846560962 13.309878931375195 4.3291511398277285 0 0 0
902 11 5 -0.43 2.2071095078622327 15.742677908040882 7.911666929075777 0 0 0
1154 11 5 -0.43 7.495545378303956 15.672663663110377 8.35770319032983 0 0 0
1599 33 4 0.053 1.0851356997740087 9.264071905143144 0.860129913564817 0 0 1
1070 5 5 -0.43 7.134274568072477 15.881518829073753 2.7884352002534474 0 0 0
61 11 2 -0.106 0.8834230538036036 12.805190770486979 9.012211376721863 0 0 0
170 5 5 -0.43 5.01851935268574 11.034299271955186 0.763928617230692 0 0 0
2970 33 4 0.053 13.607660727589439 8.453433999332791 1.455903481479829 0 0 1
1037 3 2 -0.106 8.731810665664222 8.49152903087505 5.979153912357724 0 0 0
1066 5 4 0.053 8.783396854863586 11.894575093257894 3.5528098620412027 0 0 0
1293 3 3 0.271 12.595836940572433 9.146322332897707 4.481794917510474 0 0 0
1043 3 4 0.053 8.877576099895418 9.53830768066155 6.180384929350726 0 0 0
1294 3 5 -0.43 12.56884751673106 10.078879320073758 3.7871118273246163 0 0 0
1071 5 4 0.053 8.80301189674701 13.443658766741136 4.363204127162746 0 0 0
395 3 4 0.053 11.159431546480757 9.184172453251456 6.714701585951206 0 0 0
417 5 2 -0.106 11.384705318390708 12.870533300896524 3.265628675074355 0 0 0
418 5 4 0.053 11.356322972478168 11.759034596788705 3.3658619285027145 0 0 0
419 5 1 0.106 10.09806372688549 13.234375199980745 2.5401814230679807 0 0 0
423 5 4 0.053 11.40461375166635 13.25927213816229 4.275909161568892 0 0 0
503 11 1 0.106 9.9604779021767 12.76364868827678 8.422711951185331 0 0 0
504 11 4 0.053 9.995639704256915 13.817268348688879 8.234988914602955 0 0 0
505 11 3 0.271 10.02100026175889 12.136208724498507 7.167266830962723 0 0 0
645 5 1 0.106 15.160426739865063 12.99842068686579 2.636959708921607 0 0 0
647 5 3 0.271 15.127316927111073 12.149528196170307 1.478306389425006 0 0 0
695 11 3 0.271 15.095350847060432 12.019805634473258 7.003347496773748 0 0 0
1065 5 2 -0.106 8.83890377561309 13.01242299232463 3.3070507146436317 0 0 0
1295 3 4 0.053 13.981548445941858 9.0320135577861 6.564154526877832 0 0 0
1317 5 2 -0.106 13.867094628387196 12.922044869182724 3.456913779006714 0 0 0
1318 5 4 0.053 13.755441354834801 11.914731258908578 3.908632045043095 0 0 0
1319 5 1 0.106 12.64908843361642 13.348305466148366 2.549752743498183 0 0 0
1320 5 4 0.053 12.791627271067485 13.008096106766535 1.4729112691886899 0 0 0
1323 5 4 0.053 13.890818945624622 13.598152331301806 4.427024727261709 0 0 0
1403 11 1 0.106 12.499705051550533 12.894113720655442 8.41190446061491 0 0 0
1404 11 4 0.053 12.316770318970962 12.373124040497668 7.452380963837344 0 0 0
1405 11 3 0.271 12.48019421830195 14.355287832679554 8.192732212842142 0 0 0
1321 5 3 0.271 12.598007539575743 14.688521827461033 2.3823484655825187 0 0 0
420 5 4 0.053 10.171696680578593 14.321944454954892 2.291433464352844 0 0 0
506 11 5 -0.43 10.064892237670659 11.604900732462696 6.099984938388193 0 0 0
693 11 1 0.106 15.078370414046022 12.904403021371472 8.132455977242058 0 0 0
694 11 4 0.053 14.925471978825906 13.92027258068541 7.712536001412528 0 0 0
646 5 4 0.053 15.28201549165532 14.073476674767841 2.312412406655193 0 0 0
380 2 5 -0.43 10.463083912789019 15.01250006401987 5.547003275238395 0 0 0
421 5 3 0.271 10.131909966353772 12.419308004465544 1.3841328867720475 0 0 0
696 11 5 -0.43 15.088878042865035 11.259447563163706 6.165257262301303 0 0 0
624 2 5 -0.43 15.105628843425034 15.467047984823488 5.246818628730617 0 0 0
1322 5 5 -0.43 12.522362232415263 15.811684958026197 2.311260657158636 0 0 0
1406 11 5 -0.43 12.558211276344078 15.51825963317614 8.01143616969323 0 0 0
1378 9 5 -0.43 12.599647561158863 9.114866152211373 8.7473420803015 0 0 0
1591 32 2 -0.106 1.1068818519570134 18.245165280159526 0.8597662422920294 0 0 1
1809 32 4 0.053 6.199021969978538 19.190674801929966 0.8238497889086237 0 0 1
2457 32 4 0.053 3.7379810927962964 19.037496112921993 1.1227845364839193 0 0 1
1592 32 4 0.053 1.1272757982508583 17.594269633819053 1.799384317106078 0 0 1
9 2 4 0.053 1.0551254811238455 19.246391145811074 6.61516307816172 0 0 0
127 2 3 0.271 5.018449868481385 16.266056728465237 5.254517919625764 0 0 0
8 2 4 0.053 1.0224594869629051 17.627021455612365 7.516418143380439 0 0 0
20 4 4 0.053 1.8208599608274643 21.682426098709215 2.2126385404963984 0 0 0
7 2 2 -0.106 1.0888208344067976 18.131890687872925 6.501767031363318 0 0 0
123 2 2 -0.106 6.24687575985562 18.18875054893519 6.333997097441037 0 0 0
124 2 4 0.053 6.281929719305306 17.505492889534864 7.179121609410983 0 0 0
125 2 1 0.106 5.005807192293483 17.66619801377574 5.458556481220093 0 0 0
126 2 4 0.053 4.989036127663003 18.22291814553479 4.510911728605085 0 0 0
129 2 4 0.053 6.215723539034401 19.199704556014744 6.644194451412109 0 0 0
239 10 3 0.271 4.763827499621284 21.884362771706236 7.131967298802484 0 0 0
240 10 5 -0.43 4.685312955561523 21.09271882449014 6.292261378377748 0 0 0
771 2 2 -0.106 3.6805448679230683 17.99157146127682 6.24600015924827 0 0 0
772 2 4 0.053 3.7290840804243355 17.454828856294178 7.166918606836772 0 0 0
773 2 1 0.106 2.299173075660627 17.804859753248863 5.548216769652921 0 0 0
774 2 4 0.053 2.1523645594497385 16.779767068291306 5.196990097815509 0 0 0
775 2 3 0.271 2.294905691076707 18.5631854149279 4.347580184924807 0 0 0
776 2 5 -0.43 2.3486876925858384 19.22547604802928 3.388839154315788 0 0 0
777 2 4 0.053 3.7400628777639255 18.98823273832287 6.548850633272446 0 0 0
801 4 1 0.106 3.028071859192061 23.30927126022879 3.052521503814555 0 0 0
1025 2 1 0.106 7.542455067850303 18.089837136723347 5.445649515345073 0 0 0
1026 2 4 0.053 7.480990435922993 17.14982924939425 4.847124461308057 0 0 0
1027 2 3 0.271 7.479718075409375 19.288288942657722 4.637333711486267 0 0 0
1028 2 5 -0.43 7.383302205449854 20.252573321039264 4.002394545504312 0 0 0
1054 4 4 0.053 7.814745308454148 22.038522414666502 1.400767994162881 0 0 0
154 4 4 0.053 6.170022754534655 21.78516293676835 3.370192036272641 0 0 0
1804 32 4 0.053 6.31553590368227 17.760327752881494 1.7223005830392029 0 0 1
237 10 1 0.106 4.747325483790789 22.83142339652772 8.218098930965168 0 0 0
153 4 1 0.106 5.726007270440127 22.753135031537262 3.2341439444495474 0 0 0
2452 32 4 0.053 3.713845800658334 17.435217516122997 1.7156490517100595 0 0 1
1053 4 1 0.106 7.941794290034797 23.03873259622437 1.7574172402149688 0 0 0
1138 10 4 0.053 7.344317543098713 22.88201193346714 7.573210334059265 0 0 0
886 10 4 0.053 2.316354862295036 22.71121474061131 7.23392863554989 0 0 0
19 4 2 -0.106 1.713446187683975 22.424817147009556 3.063229914310755 0 0 0
800 4 4 0.053 4.143557684551347 21.55050443837107 2.3483625042924574 0 0 0
799 4 2 -0.106 4.2933089658526224 22.348495787333164 3.152517593307024 0 0 0
1137 10 1 0.106 7.287780848810183 23.020180633476564 8.637682199951742 0 0 0
21 4 4 0.053 1.6690897923151211 21.78674792959807 4.024690846087245 0 0 0
157 4 4 0.053 5.903717589941232 23.07556506404648 1.1565631739603721 0 0 0
151 4 2 -0.106 6.490415200997609 23.41740608539269 2.0130642899248343 0 0 0
805 4 4 0.053 4.200213501695894 21.705237656440488 4.0221303484921345 0 0 0
155 4 3 0.271 5.956758503962253 23.473551625817933 4.461773016273428 0 0 0
885 10 1 0.106 2.193003839090675 23.201734562545255 8.202563465918779 0 0 0
1593 32 4 0.053 1.2197687217321367 19.298376759417394 1.2854031141984064 0 0 1
55 10 2 -0.106 0.8356553836616069 22.77752417633595 8.71120582790992 0 0 0
56 10 4 0.053 0.8125262119403787 21.74916951101971 9.009227456851368 0 0 0
2451 32 2 -0.106 3.750770037458302 18.01565532564952 0.8087040720989248 0 0 1
2061 32 4 0.053 11.309361573777768 19.294747936691003 0.9136255433424525 0 0 1
2961 32 4 0.053 14.142331165977994 19.222581777591763 1.139448329574086 0 0 1
1052 4 4 0.053 8.448616452905249 22.31337134788697 3.8558150783541385 0 0 0
2704 32 4 0.053 8.587609406903491 17.824192277846578 1.7562821757183298 0 0 1
623 2 3 0.271 15.108633951532374 16.621067027682365 5.473020646756086 0 0 0
1051 4 2 -0.106 8.889032725139593 22.931366215605074 2.999274007055988 0 0 0
687 10 3 0.271 15.038094281445893 22.371891619558554 7.371647825076895 0 0 0
1024 2 4 0.053 8.830955217531613 17.60290101448895 7.1866575951824 0 0 0
379 2 3 0.271 10.294361987013822 16.155868743351398 5.508579196938459 0 0 0
1029 2 4 0.053 9.043166330145436 19.294431434350358 6.390716899141433 0 0 0
375 2 2 -0.106 11.325693777388942 18.3055056487796 6.154790583498426 0 0 0
376 2 4 0.053 11.309092235352818 17.9629397574356 7.237416193838244 0 0 0
377 2 1 0.106 10.117158977834078 17.621456505958996 5.423891737099917 0 0 0
378 2 4 0.053 10.117207740853924 17.836109155026833 4.3748693275932595 0 0 0
381 2 4 0.053 11.043310483867907 19.348793503293486 6.253381523713782 0 0 0
405 4 1 0.106 10.221210011068198 22.210534300594027 2.6081995932338016 0 0 0
407 4 3 0.271 10.07807645543986 20.82159882567337 2.7959883761499675 0 0 0
408 4 5 -0.43 10.010666725607107 19.652389121286376 2.94908085055728 0 0 0
621 2 1 0.106 15.146052645121099 18.028388769598457 5.779597207412229 0 0 0
622 2 4 0.053 15.194827475682397 18.550941961670723 4.793144521772321 0 0 0
1023 2 2 -0.106 8.873190460823249 18.191030887300933 6.249782387264412 0 0 0
1275 2 2 -0.106 13.89159801634164 18.570160284845166 6.5105359671963345 0 0 0
1276 2 4 0.053 13.733651725866475 18.048474825331155 7.484073717104192 0 0 0
1277 2 1 0.106 12.707220579765625 18.231161036988823 5.561775483772077 0 0 0
1278 2 4 0.053 12.787036608862264 17.15514650674222 5.297555161744125 0 0 0
1279 2 3 0.271 12.869932808066192 19.08558221719874 4.3739507157430655 0 0 0
1280 2 5 -0.43 13.012214091573918 19.79050311529835 3.415639701254924 0 0 0
1281 2 4 0.053 13.904813981993946 19.67045487980728 6.792469881080704 0 0 0
1305 4 1 0.106 12.737470725234449 22.832126035085302 2.516785774482317 0 0 0
1306 4 4 0.053 12.719890131463725 21.887524229634458 1.8099367366574146 0 0 0
2956 32 4 0.053 13.821349328334023 17.571256832530885 1.7652412722520288 0 0 1
2056 32 4 0.053 11.249964559195297 17.677424671868195 1.7332824095621517 0 0 1
637 4 1 0.106 15.305827860633894 23.06593598477484 2.3880881311889506 0 0 0
406 4 4 0.053 10.450302644910177 22.409833137348002 1.499934440976117 0 0 0
404 4 4 0.053 11.621174235899042 22.41578220821556 4.363126981442404 0 0 0
1304 4 4 0.053 14.164447224940623 21.786261437107022 3.6525175705149655 0 0 0
1303 4 2 -0.106 14.134837232444593 22.78805502484 3.2155923923557497 0 0 0
639 4 3 0.271 15.203796187201986 22.190547973180678 1.2049488833411406 0 0 0
403 4 2 -0.106 11.435550404050522 22.83655627553909 3.409692152893462 0 0 0
492 10 5 -0.43 9.977312989574534 21.888219418604137 6.164560765514138 0 0 0
491 10 3 0.271 9.934095292613987 22.309249012067667 7.254124896577714 0 0 0
688 10 5 -0.43 15.105489680169484 21.850021712664308 6.354888297939791 0 0 0
685 10 1 0.106 14.971539764012835 23.023193070884815 8.647901881965257 0 0 0
1390 10 4 0.053 12.536836936751937 22.517882704387638 7.59186315682203 0 0 0
489 10 1 0.106 9.838194389091937 22.830252734076645 8.700378957264494 0 0 0
1389 10 1 0.106 12.416645547869784 22.9395688032656 8.608971366847229 0 0 0
2955 32 2 -0.106 13.928076835232092 18.120514548086312 0.8076844592850376 0 0 1
2055 32 2 -0.106 11.36167312954346 18.1742786290464 0.7620057803160739 0 0 1
833 6 4 0.053 3.5286553122728637 29.12982922933908 1.227632146127199 0 0 0
802 4 4 0.053 3.0635258656553326 23.969828295986936 2.184937645416813 0 0 0
803 4 3 0.271 3.059201965831491 24.051291443605614 4.248518439134211 0 0 0
156 4 5 -0.43 6.24183002390734 24.08128864828823 5.405679301197085 0 0 0
238 10 4 0.053 4.899552645724842 23.866562082329466 7.8496172513276345 0 0 0
152 4 4 0.053 6.3608846572316615 24.447025787385392 2.002348525802694 0 0 0
265 12 1 0.106 4.761807630707444 28.093642217223696 4.909203492685435 0 0 0
266 12 4 0.053 4.850767709788868 29.049453637155445 4.4394730741595865 0 0 0
267 12 3 0.271 4.857518005075953 27.075465044882947 3.847785744321673 0 0 0
268 12 5 -0.43 4.887729408328937 26.27892025978408 3.0176083732687946 0 0 0
913 12 1 0.106 2.091010172325163 27.939375489301774 5.001177342377514 0 0 0
914 12 4 0.053 1.847162484816409 26.92707669350426 4.586688846871581 0 0 0
915 12 3 0.271 2.1512126625390837 28.96562120969262 4.051967780397717 0 0 0
916 12 5 -0.43 2.2223159859650057 29.85705155444854 3.2622969106446202 0 0 0
1165 12 1 0.106 7.346177004130373 27.950749101218236 5.141045727511248 0 0 0
1166 12 4 0.053 7.451141620754216 27.064428480966725 4.478995277599118 0 0 0
1167 12 3 0.271 7.334885500422064 28.97177120338184 4.1871412900188245 0 0 0
263 12 2 -0.106 5.997961375320121 28.00083440718516 5.861553633153017 0 0 0
911 12 2 -0.106 3.3956720163453515 27.93117905465833 5.792347315054509 0 0 0
264 12 4 0.053 5.925168983341884 27.105045904046484 6.5178995668853155 0 0 0
269 12 4 0.053 5.97488029379202 28.823340582789385 6.652078588475864 0 0 0
912 12 4 0.053 3.5193594656219487 27.025176554294042 6.3704841292533 0 0 0
917 12 4 0.053 3.3573412338362094 28.843382604356478 6.445981005413702 0 0 0
887 10 3 0.271 2.0687413586945436 24.673455455467902 8.142837568283912 0 0 0
67 12 2 -0.106 0.8362381513647594 28.206654820954718 5.97235295228578 0 0 0
68 12 4 0.053 0.8647797908974842 27.620306898818164 6.890174201003432 0 0 0
1168 12 5 -0.43 7.2567090246723716 29.754646533514737 3.3513056158556718 0 0 0
1139 10 3 0.271 7.302961856809333 24.44049639008712 8.76990937918266 0 0 0
828 6 4 0.053 3.768972255553666 27.409455823423045 1.477046898011377 0 0 0
1140 10 5 -0.43 7.2894575536719275 25.607967726107027 8.847706492324216 0 0 0
804 4 5 -0.43 3.1418631435616104 24.670266290142422 5.2289157856130295 0 0 0
69 12 4 0.053 0.7167818155761749 29.256525480683685 6.302255063817886 0 0 0
1252 18 5 -0.43 7.286837311470229 29.224640612657687 8.851089971272538 0 0 0
1000 18 5 -0.43 2.7677436614011515 29.557852987207617 8.902594873245956 0 0 0
888 10 5 -0.43 1.957645005229677 25.827234068448263 8.199430721305184 0 0 0
180 6 4 0.053 6.22540407085911 27.633305937089894 1.5879228664208709 0 0 0
32 6 4 0.053 0.9818858091354126 27.641959095110074 1.495668996280773 0 0 0
33 6 4 0.053 1.1558148766710854 29.349482948240123 1.155542820414743 0 0 0
185 6 4 0.053 6.275903515757137 29.269140137372375 1.0187268172953865 0 0 0
1308 4 5 -0.43 12.581522349543153 24.901514071626323 0.9129688824866474 0 0 0
1332 6 4 0.053 13.954227739621215 26.91076135377289 0.7281311768705633 0 0 0
432 6 4 0.053 11.458037202535259 26.996252899749663 1.015692123120526 0 0 0
1055 4 3 0.271 8.451258606668548 23.925117921892628 0.7982484856850995 0 0 0
1309 4 4 0.053 14.229548037222386 23.581676634586493 3.958785343295886 0 0 0
409 4 4 0.053 11.100620545434271 23.905209947959356 3.620114130514628 0 0 0
437 6 4 0.053 11.541564917828383 28.688876770816115 1.1754347831515632 0 0 0
1085 6 4 0.053 8.853238597337038 28.334733852580932 1.3944243145931345 0 0 0
1080 6 4 0.053 8.868265950114504 26.7323089740932 1.0150377499115484 0 0 0
1337 6 4 0.053 13.932489041093918 28.584625210027873 0.944950804720298 0 0 0
1307 4 3 0.271 12.627638911908427 23.996514904037113 1.6244526400740003 0 0 0
1057 4 4 0.053 9.089648661189303 23.907286001819315 3.3626606726698043 0 0 0
638 4 4 0.053 15.10753058326524 24.133381062276783 2.1003406954177994 0 0 0
1164 12 4 0.053 8.798204469739291 27.25211808552423 6.70221839752015 0 0 0
1169 12 4 0.053 8.640554124034518 29.0343126100853 6.421900025128439 0 0 0
704 12 5 -0.43 15.512066954721485 24.970176674278136 5.288423214046422 0 0 0
686 10 4 0.053 14.896990008946679 24.074999970670397 8.418547775066534 0 0 0
517 12 1 0.106 10.019750661311605 28.0077088026024 5.0908576643245995 0 0 0
518 12 4 0.053 9.9957812025331 28.93930484058386 4.547731872655884 0 0 0
519 12 3 0.271 9.923229272302512 26.86161772301515 4.225665778724554 0 0 0
520 12 5 -0.43 9.829412474696902 25.893809235006728 3.574088279176388 0 0 0
701 12 1 0.106 15.142066463463488 27.480210322633702 5.425069791017369 0 0 0
702 12 4 0.053 15.202900737596782 27.871223087597286 4.3835703101224315 0 0 0
703 12 3 0.271 15.362575740379617 26.09282792120848 5.346003936939301 0 0 0
1417 12 1 0.106 12.5639569967969 27.827877917408188 5.17513672917269 0 0 0
1418 12 4 0.053 12.508721057559338 26.79246265993664 4.737122456835736 0 0 0