LAMMPS data file via write_data, version 27 Jun 2024, timestep = 1000000, units = real

3024 atoms
5 atom types
3024 bonds
5 bond types
5616 angles
8 angle types
9072 dihedrals
8 dihedral types
3456 impropers
5 improper types

0.45073755266962046 31.390373781330304 xlo xhi
0.4625394136681358 30.997377758331368 ylo yhi
-0.16258509437054158 34.84323140337264 zlo zhi
0.11724593863301813 0 0.7944580468683994 xy xz yz

Atom Type Labels

1 c1
2 c2
3 ct
4 hpan
5 nt

Bond Type Labels

1 c1-c2
2 c1-ct
3 c1-hpan
4 c2-hpan
5 ct-nt

Angle Type Labels

1 c1-c2-c1
2 c1-c2-hpan
3 c1-ct-nt
4 c2-c1-c2
5 c2-c1-ct
6 c2-c1-hpan
7 ct-c1-hpan
8 hpan-c2-hpan

Dihedral Type Labels

1 hpan-c2-c1-ct
2 c2-c1-c2-hpan
3 hpan-c1-c2-hpan
4 hpan-c1-ct-nt
5 c2-c1-ct-nt
6 c1-c2-c1-c2
7 c1-c2-c1-ct
8 c1-c2-c1-hpan

Improper Type Labels

1 c1-c2-c1-hpan-nb!=3
2 c1-c2-hpan-hpan-nb!=3
3 c2-c1-c2-ct-nb!=3
4 c2-c1-c2-hpan-nb!=3
5 c2-c1-ct-hpan-nb!=3

Masses

1 12.01115
2 12.01115
3 12.01115
4 1.00797
5 14.0067

Pair Coeffs # lj/class2/coul/long

1 0.054 4.01
2 0.054 4.01
3 0.064 4.01
4 0.02 2.3
5 0.065 3.57

Bond Coeffs # class2

1 1.53 299.67 -501.77 679.81
2 1.42 311.149 0 0
3 1.101 345 -691.89 844.6
4 1.101 345 -691.89 844.6
5 1.158 880 0 0

Angle Coeffs # class2

1 112.67 39.516 -7.443 -9.5583
2 110.77 41.453 -10.604 5.129
3 180 200 0 0
4 112.67 39.516 -7.443 -9.5583
5 109.5 46 0 0
6 110.77 41.453 -10.604 5.129
7 109.5 42 0 0
8 107.66 39.641 -12.921 -2.4318

BondBond Coeffs

1 0 1.53 1.53
2 3.3872 1.53 1.101
3 0 1.42 1.158
4 0 1.53 1.53
5 0 1.53 1.42
6 3.3872 1.53 1.101
7 0 1.42 1.101
8 5.3316 1.101 1.101

BondAngle Coeffs

1 8.016 8.016 1.53 1.53
2 20.754 11.421 1.53 1.101
3 0 0 1.42 1.158
4 8.016 8.016 1.53 1.53
5 0 0 1.53 1.42
6 20.754 11.421 1.53 1.101
7 0 0 1.42 1.101
8 18.103 18.103 1.101 1.101

Dihedral Coeffs # class2

1 0 0 0.0316 0 -0.1681 0
2 0 0 0.0316 0 -0.1681 0
3 -0.1432 0 0.0617 0 -0.1083 0
4 0 0 0 0 0 0
5 0 0 0 0 0 0
6 0 0 0.0514 0 -0.143 0
7 0 0 0.0514 0 -0.143 0
8 0 0 0.0316 0 -0.1681 0

AngleAngleTorsion Coeffs

1 0 110.77 109.5
2 -16.164 112.67 110.77
3 -12.564 110.77 110.77
4 0 109.5 180
5 0 109.5 180
6 -22.045 112.67 112.67
7 0 112.67 109.5
8 -16.164 112.67 110.77

EndBondTorsion Coeffs

1 0 0 0 0 0 0 1.101 1.42
2 0.2486 0.2422 -0.0925 0.0814 0.0591 0.2219 1.53 1.101
3 0.213 0.312 0.0777 0.213 0.312 0.0777 1.101 1.101
4 0 0 0 0 0 0 1.101 1.158
5 0 0 0 0 0 0 1.53 1.158
6 -0.0732 0 0 -0.0732 0 0 1.53 1.53
7 0 0 0 0 0 0 1.53 1.42
8 0.2486 0.2422 -0.0925 0.0814 0.0591 0.2219 1.53 1.101

MiddleBondTorsion Coeffs

1 0 0 0 1.53
2 -14.879 -3.6581 -0.3138 1.53
3 -14.261 -0.5322 -0.4864 1.53
4 0 0 0 1.42
5 0 0 0 1.42
6 -17.787 -7.1877 0 1.53
7 0 0 0 1.53
8 -14.879 -3.6581 -0.3138 1.53

BondBond13 Coeffs

1 0 1.101 1.42
2 0 1.53 1.101
3 0 1.101 1.101
4 0 1.101 1.158
5 0 1.53 1.158
6 0 1.53 1.53
7 0 1.53 1.42
8 0 1.53 1.101

AngleTorsion Coeffs

1 0 0 0 0 0 0 110.77 109.5
2 -0.2454 0 -0.1136 0.3113 0.4516 -0.1988 112.67 110.77
3 -0.8085 0.5569 -0.2466 -0.8085 0.5569 -0.2466 110.77 110.77
4 0 0 0 0 0 0 109.5 180
5 0 0 0 0 0 0 109.5 180
6 0.3886 -0.3139 0.1389 0.3886 -0.3139 0.1389 112.67 112.67
7 0 0 0 0 0 0 112.67 109.5
8 -0.2454 0 -0.1136 0.3113 0.4516 -0.1988 112.67 110.77

Improper Coeffs # class2

1 0 0
2 0 0
3 0 0
4 0 0
5 0 0

AngleAngle Coeffs

1 -1.3199 -1.3199 0.1184 112.67 110.77 110.77
2 0.2738 -0.4825 0.2738 110.77 110.77 107.66
3 0 0 0 112.67 109.5 109.5
4 -1.3199 -1.3199 0.1184 112.67 110.77 110.77
5 0 0 0 109.5 109.5 110.77

Atoms # full

1 1 2 -0.106 0.9998797555304834 2.6700321782649237 4.359298703790375 0 0 0
2 1 4 0.053 0.8862675050420827 2.0042870079049315 5.303008530219954 0 0 0
13 3 2 -0.106 0.8301389414221476 7.486924082160485 1.3663868356689985 0 0 0
14 3 4 0.053 0.8789550751011372 6.485873010480679 1.8574599164569432 0 0 0
109 1 2 -0.106 6.131531086742666 3.0331365091408244 4.166602490599182 0 0 0
110 1 4 0.053 6.399678500312549 2.394420820738331 4.976027574352264 0 0 0
111 1 1 0.106 4.9092510073947775 2.457518985286253 3.4754575180886644 0 0 0
112 1 4 0.053 4.708017604942224 2.985289381604688 2.5086319807952906 0 0 0
113 1 3 0.271 4.978792096333011 1.0906994493266373 3.119236843591289 0 0 0
115 1 4 0.053 5.928586167598031 4.054430737408953 4.541616557214337 0 0 0
137 3 2 -0.106 6.0136785166832745 7.492611142631089 1.4623156200094487 0 0 0
138 3 4 0.053 6.164536412992419 6.457037415265654 1.8288930891628303 0 0 0
139 3 1 0.106 4.748194250270953 7.589210858077934 0.6189948631192717 0 0 0
225 9 3 0.271 4.679352141476191 6.768666700231154 4.661701802299421 0 0 0
226 9 5 -0.43 4.573153160577301 5.8545665378133895 3.965512097763021 0 0 0
757 1 2 -0.106 3.6215753487532782 2.6168766419580662 4.372452293178782 0 0 0
758 1 4 0.053 3.7506556946801037 2.051955250966836 5.245103045935769 0 0 0
759 1 1 0.106 2.3164316280505273 2.5403016519821673 3.525694673559465 0 0 0
760 1 4 0.053 2.3315525689289442 1.503648636480204 3.092840455546198 0 0 0
761 1 3 0.271 2.193425687473548 3.4268518570073145 2.3315792154107777 0 0 0
762 1 5 -0.43 2.1000177153225597 4.13590511605236 1.4194149857799627 0 0 0
763 1 4 0.053 3.6259389773491426 3.690032704010693 4.747507532088746 0 0 0
785 3 2 -0.106 3.4035086670043806 7.458899494450828 1.385471927447978 0 0 0
786 3 4 0.053 3.2849787289901293 6.399425552232503 1.7655952250032365 0 0 0
1011 1 1 0.106 7.514621939568516 3.0659335764434474 3.346687075594271 0 0 0
1012 1 4 0.053 7.603614784683675 1.9704665562713912 2.99605259376676 0 0 0
1013 1 3 0.271 7.457910059292071 3.8714951523297856 2.210536417639188 0 0 0
1014 1 5 -0.43 7.37153056143227 4.480332453202 1.2457841862359862 0 0 0
3 1 4 0.053 1.018076683510924 3.7429864390348153 4.694984061423546 0 0 0
787 3 1 0.106 2.1498428901711613 7.72130128994407 0.5292705093885041 0 0 0
1586 31 4 0.053 1.0272981047500853 2.3512842975056722 0.3593052584458961 0 0 1
1039 3 1 0.106 7.3554718269724395 7.895474047211701 0.6598779181667709 0 0 0
2438 31 4 0.053 3.5496475655455884 1.927903600038197 0.4802363330440166 0 0 1
1124 9 4 0.053 7.497181694022354 7.859779184161543 4.471789485716672 0 0 0
222 9 4 0.053 6.363213926646205 6.752577919513066 6.565877826836632 0 0 0
846 7 5 -0.43 2.0865576533909955 4.577288847177184 6.8032320827605455 0 0 0
872 9 4 0.053 2.2168390681681887 7.134300651811355 5.047332612852069 0 0 0
49 9 2 -0.106 0.9080160673302473 7.8222645870954555 6.659580050784998 0 0 0
1790 31 4 0.053 6.381991046383336 1.794101092639543 0.480117220144355 0 0 1
869 9 2 -0.106 3.5968975881399894 8.038821830972012 6.486705154974375 0 0 0
221 9 2 -0.106 6.090621240455159 7.746712012291874 6.222939719310567 0 0 0
143 3 4 0.053 5.973451484766647 8.021072355578239 2.3795373166758877 0 0 0
15 3 4 0.053 0.8228745092730945 8.213768804017814 2.1735912153680577 0 0 0
223 9 1 0.106 4.756439119963603 7.875656140820809 5.4827462431362015 0 0 0
791 3 4 0.053 3.3530822136955094 8.06850367625728 2.3096459975639205 0 0 0
871 9 1 0.106 2.1710351699200494 8.027819764906429 5.777964064206164 0 0 0
2690 31 4 0.053 8.75627776109248 2.0202082535581187 0.2916218225294755 0 0 1
1010 1 4 0.053 8.677441579075706 3.097330817064335 5.286156701783027 0 0 0
1038 3 4 0.053 8.565189995994148 6.720102656253822 1.9728840079893137 0 0 0
1015 1 4 0.053 8.742260933421386 4.530132428337983 4.308893479535277 0 0 0
361 1 2 -0.106 11.396428180634677 3.099825765103743 4.525137665090062 0 0 0
362 1 4 0.053 11.351169353306995 2.380048435387951 5.383155554207385 0 0 0
363 1 1 0.106 10.0911931849384 2.955254629260364 3.6079079510843286 0 0 0
364 1 4 0.053 10.316260222084813 3.4666584308719677 2.6841780986610466 0 0 0
367 1 4 0.053 11.373350900201245 4.119641518119522 4.952808942874706 0 0 0
389 3 2 -0.106 11.374915061140033 7.815401449159682 1.4728982294335653 0 0 0
390 3 4 0.053 11.482889769781334 6.89457818062068 2.041200352350362 0 0 0
391 3 1 0.106 10.012925793051851 7.747970389525727 0.7128063502480624 0 0 0
477 9 3 0.271 10.08044131762604 7.094023861864562 4.922692289652173 0 0 0
478 9 5 -0.43 10.11760078875876 6.217619196852678 4.113275226388665 0 0 0
613 1 1 0.106 15.371071811354057 2.726820054329014 3.7842585574821346 0 0 0
614 1 4 0.053 15.404652660955312 3.176104195320445 2.8243218980235 0 0 0
629 3 1 0.106 15.097213542505916 7.765369024209636 0.5944168244141514 0 0 0
679 9 3 0.271 15.088624045465027 7.138874814706053 4.820659943667477 0 0 0
680 9 5 -0.43 15.145736054984331 6.380273805078745 3.9906118778160744 0 0 0
1009 1 2 -0.106 8.759961635580513 3.442336799659667 4.1961699238144625 0 0 0
1261 1 2 -0.106 14.110269262086005 3.125109980573817 4.540954382078655 0 0 0
1262 1 4 0.053 14.043237480282931 2.3962739098341057 5.358252512132444 0 0 0
1263 1 1 0.106 12.74466569860185 2.9564491491204956 3.795234394191778 0 0 0
1264 1 4 0.053 12.62311760469378 1.880290980251408 3.5492176124750414 0 0 0
1265 1 3 0.271 12.698552954658679 3.7605711130713004 2.6040755845428096 0 0 0
1266 1 5 -0.43 12.740875915076183 4.459760927158264 1.682239779168028 0 0 0
1267 1 4 0.053 14.18932797116788 4.140248702186604 4.940855602518958 0 0 0
1289 3 2 -0.106 13.838976393278466 7.815800732644957 1.472547366718099 0 0 0
1290 3 4 0.053 13.614369373769605 6.905836521820959 2.0327214093025896 0 0 0
365 1 3 0.271 10.027272017416752 1.5794015701012065 3.371144167568209 0 0 0
615 1 3 0.271 15.512050560082875 1.3217703388873945 3.4727886073601337 0 0 0
1037 3 2 -0.106 8.687705916679334 7.690718396378806 1.4697307383557965 0 0 0
1291 3 1 0.106 12.584595661177442 7.915389493210464 0.5849606844799604 0 0 0
2042 31 4 0.053 11.664001260662445 2.4424756247123005 0.3869777503893391 0 0 1
677 9 1 0.106 14.976022172917528 8.071251801743085 5.882561100608148 0 0 0
1373 9 2 -0.106 13.746526868737982 7.935019241926863 6.794912197071435 0 0 0
1376 9 4 0.053 12.503670503705816 7.9728152104700625 5.102594648235266 0 0 0
473 9 2 -0.106 11.257565072695394 7.957531302766848 6.779574484824248 0 0 0
1121 9 2 -0.106 8.60772800634612 8.022479121160334 6.492807684348603 0 0 0
475 9 1 0.106 10.009474488281722 8.10036788329722 5.916061013372391 0 0 0
2942 31 4 0.053 13.915457740692126 1.8041503629907782 0.3619711616424156 0 0 1
393 3 3 0.271 9.986257532574008 6.560468024586975 -0.0033217746507043233 0 0 0
6 1 4 0.053 16.324256408378076 4.061088840636307 5.208867380158255 0 0 0
5 1 4 0.053 16.709059076566902 2.330290068099228 5.452489468007501 0 0 0
4 1 2 -0.106 16.62088891641693 3.162833497421037 4.666696706834711 0 0 0
17 3 4 0.053 16.522992043189845 6.797458794138522 2.009639184698069 0 0 0
116 1 2 -0.106 21.695167197636096 3.2021233405034155 4.625348765002857 0 0 0
117 1 4 0.053 21.85407449841768 2.7141424208244267 5.598218676397828 0 0 0
118 1 1 0.106 20.368332775194226 2.7479878737248558 3.983508000668847 0 0 0
119 1 4 0.053 20.25726909139454 3.3121039772108283 2.982686704011459 0 0 0
122 1 4 0.053 21.697100006285474 4.294854931458 4.770129247080455 0 0 0
145 3 4 0.053 21.60419311998359 6.61945477290092 2.100895174617323 0 0 0
146 3 1 0.106 20.353225520866907 7.52213543607838 0.6259391310641296 0 0 0
232 9 3 0.271 20.10137495999608 6.946800135969061 4.9877306556814345 0 0 0
233 9 5 -0.43 20.14461367393983 6.114983548315273 4.22412031489383 0 0 0
764 1 2 -0.106 19.16308128898624 3.215464555565212 4.833734594543766 0 0 0
765 1 4 0.053 18.914332592633578 2.5742147361796266 5.705965164576163 0 0 0
766 1 1 0.106 17.95345759303534 3.0795160790669196 3.9071744728803965 0 0 0
767 1 4 0.053 18.01203553673914 2.001051900740906 3.581820775708872 0 0 0
768 1 3 0.271 17.919641249055182 4.006186472689471 2.7399282441369235 0 0 0
769 1 5 -0.43 17.905789869649126 4.722861388719123 1.8313855113764514 0 0 0
770 1 4 0.053 19.29101509369385 4.234701384411043 5.248888608830924 0 0 0
792 3 2 -0.106 19.036143223442267 7.649701808309151 1.3686164448864373 0 0 0
793 3 4 0.053 18.752904341206367 6.706251174008594 2.000433609421804 0 0 0
1018 1 1 0.106 22.802925790301728 2.892237758785192 3.656435506454584 0 0 0
1019 1 4 0.053 22.701753477717894 1.811898813536211 3.421839072374861 0 0 0
1020 1 3 0.271 22.734931258094356 3.7103870837289503 2.490187506899254 0 0 0
1021 1 5 -0.43 22.775415230326523 4.415517052336425 1.5736344617519171 0 0 0
16 3 2 -0.106 16.467984723581516 7.724804405352867 1.3617990829346844 0 0 0
120 1 3 0.271 20.413555127129577 1.336619549549153 3.5818419783722812 0 0 0
144 3 2 -0.106 21.57479799210011 7.56845706071605 1.595812227158598 0 0 0
794 3 1 0.106 17.78064776898865 7.827455224927786 0.523678369213621 0 0 0
1046 3 1 0.106 22.918798499263858 7.7152199274228925 0.7630486085411216 0 0 0
879 9 4 0.053 17.55939219345099 7.813810137638143 4.983829132568726 0 0 0
1131 9 4 0.053 22.559328852074948 7.179404349754867 5.174798939028937 0 0 0
52 9 2 -0.106 16.23933012620588 8.060339975075458 6.762879183533767 0 0 0
228 9 2 -0.106 21.404821258041068 7.797658018898303 6.8010213400357555 0 0 0
230 9 1 0.106 20.10934686444884 8.032210505631024 5.958504936535373 0 0 0
876 9 2 -0.106 18.881709534603168 8.012246988639784 6.80671352946617 0 0 0
1797 31 4 0.053 21.649469515547338 2.06752037163146 0.26285299943687407 0 0 1
2445 31 4 0.053 19.039502273439474 1.7942945534776262 0.3580013004495112 0 0 1
1589 31 4 0.053 16.547677567191954 1.850844358993585 0.31333382409821187 0 0 1
1130 9 1 0.106 22.743674520462463 7.973938160038887 5.9295527118096745 0 0 0
839 6 5 -0.43 18.041551094860566 0.7080309133011109 6.273877723399457 0 1 0
148 3 3 0.271 20.22563559653406 6.257707270856246 -0.10105504233346582 0 0 0
1047 3 4 0.053 22.734281420459844 7.011939157681726 -0.08854447109824898 0 0 0
1045 3 4 0.053 24.13507047926882 6.329685742872817 1.9842900567391912 0 0 0
1017 1 4 0.053 24.151498006742983 2.4920622339897074 5.278291213016656 0 0 0
1022 1 4 0.053 24.111449978814157 4.2579349180964385 4.744905039557766 0 0 0
1016 1 2 -0.106 24.092225558656267 3.1982115868019454 4.40433751026192 0 0 0
684 9 5 -0.43 30.526638620367557 6.096046583859861 4.000308289589387 0 0 0
368 1 2 -0.106 26.678922674813478 3.0497446924090443 4.352899156748449 0 0 0
369 1 4 0.053 26.624670437214228 2.2038759695950354 5.163429198987304 0 0 0
370 1 1 0.106 25.32583856520047 2.8619150998533316 3.505148404194394 0 0 0
371 1 4 0.053 25.244210629382373 3.710928951927257 2.741704570433197 0 0 0
374 1 4 0.053 26.695830285439676 3.9843377294716467 5.006935886755877 0 0 0
397 3 4 0.053 27.201247735391938 6.5925045000329545 2.0816587139747207 0 0 0
398 3 1 0.106 25.530169410664797 7.420748620572922 0.8569156139438292 0 0 0
484 9 3 0.271 25.459426572252568 6.8886492425454025 4.871559686334436 0 0 0
485 9 5 -0.43 25.613751248056182 6.098966615477993 4.040140720314978 0 0 0
617 1 1 0.106 30.59314550145175 2.6483641770185073 3.5753016302293252 0 0 0
618 1 4 0.053 30.65602191731491 3.415309906762663 2.7274365885390086 0 0 0
619 1 3 0.271 30.410773123923292 1.4500295507147998 2.9105189465158623 0 0 0
633 3 1 0.106 30.567940454947724 7.630201807021487 0.4923174381968254 0 0 0
683 9 3 0.271 30.53847567858731 6.926949856849119 4.80465469814093 0 0 0
1044 3 2 -0.106 24.162460437571973 7.400767877070289 1.587052636908019 0 0 0
1268 1 2 -0.106 29.282847974629277 2.9452321784830877 4.319277755304527 0 0 0
1269 1 4 0.053 29.241558846787782 2.209115859138202 5.124608322443987 0 0 0
1270 1 1 0.106 27.976576343591567 2.9339001569069802 3.5373576693338475 0 0 0
1271 1 4 0.053 27.877871564328984 1.983819023800528 3.0692462462441323 0 0 0
1272 1 3 0.271 28.053759164558706 3.8154695493574984 2.4529964359303356 0 0 0
1273 1 5 -0.43 28.159317599868153 4.5236231306094306 1.538193146746398 0 0 0
1274 1 4 0.053 29.412224319296413 3.9692855815375614 4.891038341413903 0 0 0
1296 3 2 -0.106 29.33350530778209 7.517931387428477 1.3024251842029868 0 0 0
1297 3 4 0.053 29.235372295088396 6.488899531626702 1.6632130115698747 0 0 0
372 1 3 0.271 25.22982046610592 1.4749047434541334 2.9801037809394186 0 0 0
396 3 2 -0.106 26.923938112513426 7.539347312336608 1.490020869691691 0 0 0
1298 3 1 0.106 28.05683744065032 7.935401708248737 0.5588984077570445 0 0 0
1357 7 5 -0.43 27.714919272998543 4.569168643625568 6.832154801485682 0 0 0
2949 31 4 0.053 29.31509722556038 1.8832458564017613 0.312578537024608 0 0 1
2697 31 4 0.053 24.130957585216883 1.2671849255101102 0.2944901057909841 0 0 1
2049 31 4 0.053 27.11173304334416 1.911006718559527 0.24287773232372356 0 0 1
1383 9 4 0.053 27.959740285012884 7.420137486062936 5.070205159874067 0 0 0
1380 9 2 -0.106 29.2605923204762 7.829380792826703 6.690383508073255 0 0 0
681 9 1 0.106 30.53282538488616 7.991741788667491 5.807496378109031 0 0 0
480 9 2 -0.106 26.58607039805249 7.791362290452973 6.758926540451624 0 0 0
1128 9 2 -0.106 24.081673995522316 7.689279060357626 6.659668014993766 0 0 0
482 9 1 0.106 25.361864608605934 7.916139463285864 5.868463806299028 0 0 0
1382 9 1 0.106 27.936352688913274 8.085638684330291 5.966623844335507 0 0 0
1050 3 4 0.053 24.230117102790615 8.170133235959025 2.323013886946795 0 0 0
1302 3 4 0.053 29.332795748508985 8.167882874201698 2.2155404788797997 0 0 0
400 3 3 0.271 25.53542140875753 6.351280627131569 -0.03907600871136378 0 0 0
1123 9 1 0.106 7.423699720833774 8.298848898565542 5.51498862127932 0 0 0
140 3 4 0.053 4.661211051315726 8.518775403366048 0.01956797649712677 0 0 0
224 9 4 0.053 4.720547294245219 8.747748119635151 4.858979046342274 0 0 0
25 5 2 -0.106 0.984735902117145 13.117797291289989 3.641317665325798 0 0 0
165 5 2 -0.106 6.19636426564664 13.308354510973594 3.206194944251056 0 0 0
166 5 4 0.053 6.242666660122568 13.019125864294974 4.286047258127916 0 0 0
167 5 1 0.106 4.856383567323365 12.767421351771649 2.6128422799427278 0 0 0
168 5 4 0.053 4.9417715076068705 13.05538577259656 1.5890489753478159 0 0 0
169 5 3 0.271 4.936732402415235 11.336256962927191 2.6081896792262045 0 0 0
170 5 5 -0.43 5.029362972267218 10.211119009423061 2.6111693138844068 0 0 0
171 5 4 0.053 6.166873112365999 14.44247193384326 3.147628220868184 0 0 0
813 5 2 -0.106 3.588899762625851 13.177508842356714 3.5050428538790093 0 0 0
814 5 4 0.053 3.654634757596992 12.60072368849223 4.426603889494872 0 0 0
815 5 1 0.106 2.2259314081692274 12.879140946407121 2.778810811242162 0 0 0
816 5 4 0.053 2.2752895021980395 11.835345741837362 2.4253333006270954 0 0 0
817 5 3 0.271 2.2564096691369198 13.596058483853318 1.5660812308568381 0 0 0
819 5 4 0.053 3.5671346240263127 14.199852909734275 3.7408416896397165 0 0 0
873 9 3 0.271 2.0926131244646733 9.242010952947355 4.920253830732509 0 0 0
874 9 5 -0.43 2.0496994310121215 10.14934133381119 4.216595441526474 0 0 0
1067 5 1 0.106 7.468155853029616 12.893221007121554 2.470092342724557 0 0 0
1068 5 4 0.053 7.3984303151904784 11.79198253943992 2.4576715522813983 0 0 0
1069 5 3 0.271 7.487224357659263 13.323169331691076 1.1077963003590923 0 0 0
1125 9 3 0.271 7.272915769018363 9.729673532165828 5.311706722436611 0 0 0
1126 9 5 -0.43 7.132207609740468 10.870311883768364 5.191158543717666 0 0 0
1070 5 5 -0.43 7.468479170154556 13.626808844672631 -0.004008735659302487 0 0 0
818 5 5 -0.43 2.316309623170473 14.175887972429328 0.5715415414473783 0 0 0
1154 11 5 -0.43 7.787921598551421 15.555833978828876 6.410759483226657 0 0 0
26 5 4 0.053 1.0668855205369674 12.59800409512683 4.593620486067164 0 0 0
1041 3 3 0.271 7.143058355487241 9.305523306268176 0.24711848289012434 0 0 0
789 3 3 0.271 2.0966703716437047 9.045139301527861 0.03545883660206314 0 0 0
27 5 4 0.053 0.9246595655745766 14.23163257816651 3.860184176494034 0 0 0
1042 3 5 -0.43 6.966169017846242 10.408259671087867 -0.06606457803276475 0 0 0
902 11 5 -0.43 2.9115769152535083 15.872451244748794 6.395395071079992 0 0 0
124 2 4 0.053 6.096207027139997 16.08101240867319 0.931405293051063 0 0 0
1295 3 4 0.053 13.960506500106193 8.682765504920951 2.129891561581022 0 0 0
1375 9 1 0.106 12.531397788156523 8.372482430092145 6.045680518486436 0 0 0
395 3 4 0.053 11.445936581566919 8.583383615596482 2.2943947513799245 0 0 0
1043 3 4 0.053 8.670829637789858 8.319096640527007 2.394513211922796 0 0 0
630 3 4 0.053 15.082656830386929 8.657066680146063 -0.0629817196164327 0 0 0
1066 5 4 0.053 8.558533391641179 13.128547095120675 4.31526393060298 0 0 0
1065 5 2 -0.106 8.697677129819834 13.365485542287779 3.2061047426134284 0 0 0
1071 5 4 0.053 8.868511378784653 14.446853234794734 3.195313007748529 0 0 0
476 9 4 0.053 10.058748351105091 8.981386080401256 5.333857511246354 0 0 0
678 9 4 0.053 14.962641427470226 9.091101467290278 5.35030676543057 0 0 0
417 5 2 -0.106 11.225354421634284 13.260770834708179 3.509592552828155 0 0 0
418 5 4 0.053 11.104537180887256 12.914095298575178 4.5493301592952715 0 0 0
419 5 1 0.106 10.006399786447751 12.692558296100907 2.746064478697912 0 0 0
420 5 4 0.053 10.099401434272986 12.856440603854164 1.633424437125503 0 0 0
421 5 3 0.271 9.886705872425447 11.25762349123929 3.112288175995389 0 0 0
422 5 5 -0.43 9.777297319012806 10.139468543475928 3.4379602407998675 0 0 0
423 5 4 0.053 11.147055995758807 14.35148297406787 3.4304046434372863 0 0 0
645 5 1 0.106 15.177436197739363 12.905621463575555 2.598413025364649 0 0 0
646 5 4 0.053 15.02178667641627 13.270372972701558 1.5985205855638962 0 0 0
647 5 3 0.271 15.193807366031692 11.519452274796507 2.6231873896142233 0 0 0
648 5 5 -0.43 15.174272594153207 10.392377322553147 2.652597308011014 0 0 0
1317 5 2 -0.106 13.91648073562684 13.38783108855415 3.39547560797552 0 0 0
1318 5 4 0.053 14.054261047661956 13.163571573594075 4.468161465698036 0 0 0
1319 5 1 0.106 12.546210107704747 12.856929245490088 2.842323707061863 0 0 0
1320 5 4 0.053 12.559763258389665 11.783654366814359 2.8359777920899547 0 0 0
1321 5 3 0.271 12.449843418079993 13.518847661589332 1.5194939959963991 0 0 0
1323 5 4 0.053 13.82276927407816 14.45232887166527 3.3558738546729248 0 0 0
1377 9 3 0.271 12.61029110686397 9.771088953469617 5.825710613950905 0 0 0
1378 9 5 -0.43 12.709128596925007 10.914491986515584 5.619663389808124 0 0 0
1322 5 5 -0.43 12.427278841338524 14.071423612121794 0.5314210278695911 0 0 0
1406 11 5 -0.43 12.640917379728883 15.503234017790971 5.86208953086973 0 0 0
1293 3 3 0.271 12.468630535261381 9.177137798010694 -0.044010562560026015 0 0 0
1405 11 3 0.271 12.690895043838974 14.731104983963059 6.690294349312405 0 0 0
694 11 4 0.053 15.274553428471197 13.973219373608302 6.8226338090789485 0 0 0
392 3 4 0.053 9.904475044241421 8.623077095291276 0.013592542432988935 0 0 0
18 3 4 0.053 16.569074888971954 8.48294719624366 2.1814108039246562 0 0 0
150 3 4 0.053 21.49792419361812 8.335356395475696 2.3353632355656786 0 0 0
878 9 1 0.106 17.607514786708435 8.344265949866774 6.010826334361911 0 0 0
798 3 4 0.053 19.147439540127174 8.439546890464365 2.117490928024705 0 0 0
30 5 4 0.053 16.478081654865385 14.574545034179579 3.370089173081535 0 0 0
28 5 2 -0.106 16.533619922893116 13.499735961605966 3.173527616822545 0 0 0
29 5 4 0.053 16.696292693287532 12.968347176398824 4.17616601176569 0 0 0
231 9 4 0.053 20.23010165233353 8.970080453518026 5.325982579610292 0 0 0
172 5 2 -0.106 21.5121055679409 13.197420795277345 3.3903230901002344 0 0 0
173 5 4 0.053 21.59358738645531 12.64715921525279 4.322366615916556 0 0 0
174 5 1 0.106 20.27962672520669 12.759860533669325 2.6677213592171967 0 0 0
175 5 4 0.053 20.43953051955104 13.03155278955018 1.6541728734881025 0 0 0
176 5 3 0.271 20.15153587386758 11.31795084365949 2.766491154814614 0 0 0
177 5 5 -0.43 20.086740234407245 10.164203150614362 2.815756097803438 0 0 0
178 5 4 0.053 21.454134762351465 14.304410386890806 3.6462521748980246 0 0 0
820 5 2 -0.106 19.050157918300428 13.479405195218098 3.162590707509903 0 0 0
821 5 4 0.053 18.940362140243536 13.11621053037188 4.2051579615730255 0 0 0
822 5 1 0.106 17.7801486688167 13.221618153934234 2.300827379249508 0 0 0
823 5 4 0.053 17.786319039252078 12.156642687430127 1.9194921702722807 0 0 0
824 5 3 0.271 17.65279194156208 13.997507044002441 1.1096560402960336 0 0 0
826 5 4 0.053 19.14358163184785 14.577858484933337 3.1971792698060995 0 0 0
880 9 3 0.271 17.75073698219935 9.62272205543092 5.532326436902307 0 0 0
881 9 5 -0.43 17.833374993556554 10.72993049163087 5.202674669735528 0 0 0
1074 5 1 0.106 22.833111859655787 12.923269595745909 2.5889576119581235 0 0 0
1075 5 4 0.053 22.64804945052981 11.89057103182137 2.12363849642526 0 0 0
1076 5 3 0.271 23.012766118949443 13.67586502624727 1.394781278444901 0 0 0
1132 9 3 0.271 22.69551943631211 9.24764565514586 5.317898738690589 0 0 0
1133 9 5 -0.43 22.69415223423296 10.289907884774083 4.782035976251089 0 0 0
825 5 5 -0.43 17.50889204743747 14.667500287237825 0.1624954146189186 0 0 0
909 11 5 -0.43 18.10991338046322 14.934413023761932 5.479272825862199 0 0 0
1160 11 3 0.271 23.04277886335025 14.253207866756638 6.770313712666241 0 0 0
908 11 3 0.271 17.978894197916183 14.350082949176887 6.486078276389658 0 0 0
1161 11 5 -0.43 23.058758875289634 14.95175199123937 5.848676328594621 0 0 0
796 3 3 0.271 17.852256441196133 9.156684077481605 0.02471625699729249 0 0 0
147 3 4 0.053 20.480955577786638 8.37344026530465 -0.056649841607210094 0 0 0
1077 5 5 -0.43 23.21511927184752 14.279934879919885 0.427564618856053 0 0 0
1048 3 3 0.271 23.000225148013037 9.05269760881172 0.3145873152738398 0 0 0
1049 3 5 -0.43 23.066211213819486 10.10903633093797 -0.11874991840487817 0 0 0
402 3 4 0.053 26.877188747416696 8.351931638424073 2.2699010901416976 0 0 0
1073 5 4 0.053 24.00630777518282 12.134364928894827 4.183634734286157 0 0 0
1072 5 2 -0.106 24.141734013952792 12.98359346697834 3.378754922476541 0 0 0
1078 5 4 0.053 24.082990398619053 14.011931396263213 3.9153223538026705 0 0 0
483 9 4 0.053 25.291039852948778 8.946560996945854 5.459389671328304 0 0 0
424 5 2 -0.106 26.621097353425903 13.328198969763612 3.1393507546977095 0 0 0
425 5 4 0.053 26.807222143347346 12.922519395859196 4.1448361201838 0 0 0
426 5 1 0.106 25.35838894286676 12.682352336971636 2.5251399126920675 0 0 0
427 5 4 0.053 25.280379761288003 12.925147580586533 1.4962902799507296 0 0 0
428 5 3 0.271 25.392354416218787 11.206683586837867 2.5114776515516914 0 0 0
429 5 5 -0.43 25.421826014279596 10.049192880991667 2.507472352712562 0 0 0
430 5 4 0.053 26.573748645390452 14.431744080341955 3.303544057190264 0 0 0
649 5 1 0.106 30.549475319786232 12.72884731679522 2.920252183056151 0 0 0
650 5 4 0.053 30.687843270356808 13.04965867804324 1.8314302612344173 0 0 0
651 5 3 0.271 30.332060357575386 11.32302930760042 2.847149971180124 0 0 0
652 5 5 -0.43 30.12048560701617 10.18244739152505 2.7676241189850344 0 0 0
682 9 4 0.053 30.621780980933323 8.955280329210757 5.270406188012583 0 0 0
1324 5 2 -0.106 29.201057151657082 13.497695274193532 3.352608283005496 0 0 0
1325 5 4 0.053 28.898703414544322 13.295986675682972 4.439621431627809 0 0 0
1326 5 1 0.106 28.013295819801264 13.139366664231009 2.412071089189377 0 0 0
1327 5 4 0.053 28.077188684022147 12.05674396103649 2.224436687802886 0 0 0
1328 5 3 0.271 28.074538144222103 13.823814864407712 1.2077376373440434 0 0 0
1330 5 4 0.053 29.43986079553047 14.562579024454916 3.233883117773898 0 0 0
1384 9 3 0.271 27.873347700440092 9.433794319617137 5.475111899698713 0 0 0
1385 9 5 -0.43 27.78731260385638 10.497368302365762 5.091116612463121 0 0 0
1329 5 5 -0.43 28.144969523191705 14.351011593443722 0.16765449881979555 0 0 0
1412 11 3 0.271 28.13120799850693 14.493428465224287 6.7093899042326335 0 0 0
698 11 4 0.053 30.83198733399704 13.765631579351073 6.7914143970137735 0 0 0
1300 3 3 0.271 28.106750845966587 9.381318751454009 0.2731634280643095 0 0 0
1413 11 5 -0.43 28.057362374168655 15.18372374704142 5.770278573653563 0 0 0
634 3 4 0.053 30.543193779656008 8.573225272661746 -0.015144137619155063 0 0 0
1301 3 5 -0.43 28.172728069692354 10.524627439621344 0.027137880538960407 0 0 0
399 3 4 0.053 25.56070676958926 8.364289621803382 0.3473587815463338 0 0 0
772 2 4 0.053 3.4569506913435157 16.484421959512275 1.4263770334912167 0 0 0
8 2 4 0.053 1.1053796669369675 16.495164323233976 1.3723556674873159 0 0 0
212 8 5 -0.43 5.214856376766921 16.794224267788124 3.8063600903744996 0 0 0
7 2 2 -0.106 1.0488012298429243 17.541821233443734 0.9633227473969046 0 0 0
123 2 2 -0.106 6.218573655192461 17.161762050248168 0.6743200200668743 0 0 0
129 2 4 0.053 6.292941338119746 17.85611678042481 1.5173948167512945 0 0 0
153 4 1 0.106 5.139907924929192 22.601819230584002 1.4324827604515016 0 0 0
155 4 3 0.271 5.081335794437636 21.28809726349848 1.9504797771928613 0 0 0
156 4 5 -0.43 4.99173859645397 20.20254567853504 2.2931802771737484 0 0 0
209 8 1 0.106 5.1532682172318145 19.016182702461712 5.265240446311056 0 0 0
210 8 4 0.053 5.201953544694157 19.986722923559906 4.710487990950052 0 0 0
211 8 3 0.271 5.211415965752 17.790108204052732 4.433989832694934 0 0 0
771 2 2 -0.106 3.69841540469892 17.400450587625663 0.8105509887851658 0 0 0
777 2 4 0.053 3.7379398332190474 18.266076336105947 1.5534357062036774 0 0 0
801 4 1 0.106 2.623517827230704 22.984206764316486 1.2217837106991905 0 0 0
802 4 4 0.053 2.525179353253935 21.83407257596249 1.1170552069459718 0 0 0
857 8 1 0.106 2.62391842404253 19.260924610074717 5.5655852606040535 0 0 0
858 8 4 0.053 2.614206912781406 18.548784401102857 4.635429033009117 0 0 0
859 8 3 0.271 2.5480430088970816 20.63691081354178 5.04887352502757 0 0 0
860 8 5 -0.43 2.554016729186761 21.73622795202802 4.632133649247801 0 0 0
1053 4 1 0.106 7.686151232742289 23.011491283169402 1.1385054874018057 0 0 0
1054 4 4 0.053 7.70356020854161 21.92465144485233 1.0549306987732743 0 0 0
1109 8 1 0.106 7.777096917833934 18.78089214949794 5.187108986235563 0 0 0
1110 8 4 0.053 7.783000989358128 17.954159553990547 4.429010801832282 0 0 0
1111 8 3 0.271 7.877517454333598 20.049135841801988 4.537455672876478 0 0 0
1112 8 5 -0.43 7.907403396617838 21.0990525665991 4.008604630256315 0 0 0
43 8 2 -0.106 1.3985323742750715 18.988681116204532 6.446909272156163 0 0 0
207 8 2 -0.106 6.5177213242526415 18.81591023196256 6.035557255543365 0 0 0
855 8 2 -0.106 3.9592632396225715 19.172333993064644 6.273625973840009 0 0 0
154 4 4 0.053 5.095126431281601 22.497545469879196 0.31745504643492406 0 0 0
20 4 4 0.053 1.626826689053674 23.15757563806767 3.106197515437213 0 0 0