LAMMPS data file via write_data, version 27 Jun 2024, timestep = 1000000, units = real

3024 atoms
5 atom types
3024 bonds
5 bond types
5616 angles
8 angle types
9072 dihedrals
8 dihedral types
3456 impropers
5 improper types

0.44705225726215225 31.39405907674091 xlo xhi
0.5871502045949981 30.872766967402605 ylo yhi
-0.11563553279168204 34.79628184179451 zlo zhi
0.11628899211678073 0 0.7923270036060508 xy xz yz

Atom Type Labels

1 c1
2 c2
3 ct
4 hpan
5 nt

Bond Type Labels

1 c1-c2
2 c1-ct
3 c1-hpan
4 c2-hpan
5 ct-nt

Angle Type Labels

1 c1-c2-c1
2 c1-c2-hpan
3 c1-ct-nt
4 c2-c1-c2
5 c2-c1-ct
6 c2-c1-hpan
7 ct-c1-hpan
8 hpan-c2-hpan

Dihedral Type Labels

1 hpan-c2-c1-ct
2 c2-c1-c2-hpan
3 hpan-c1-c2-hpan
4 hpan-c1-ct-nt
5 c2-c1-ct-nt
6 c1-c2-c1-c2
7 c1-c2-c1-ct
8 c1-c2-c1-hpan

Improper Type Labels

1 c1-c2-c1-hpan-nb!=3
2 c1-c2-hpan-hpan-nb!=3
3 c2-c1-c2-ct-nb!=3
4 c2-c1-c2-hpan-nb!=3
5 c2-c1-ct-hpan-nb!=3

Masses

1 12.01115
2 12.01115
3 12.01115
4 1.00797
5 14.0067

Pair Coeffs # lj/class2/coul/long

1 0.054 4.01
2 0.054 4.01
3 0.064 4.01
4 0.02 2.3
5 0.065 3.57

Bond Coeffs # morse

1 82.6961 2 1.53
2 82.6961 1.5 1.42
3 98.2315 2 1.101
4 98.2315 2 1.101
5 211.998 1.6 1.158

Angle Coeffs # class2xe

1 112.67 39.516 -7.443 -9.5583
2 110.77 41.453 -10.604 5.129
3 180 200 0 0
4 112.67 39.516 -7.443 -9.5583
5 109.5 46 0 0
6 110.77 41.453 -10.604 5.129
7 109.5 42 0 0
8 107.66 39.641 -12.921 -2.4318

BondBond Coeffs

1 82.6961 0 1.53 1.53
2 90.4638 0.136826 1.53 1.101
3 147.347 0 1.42 1.158
4 82.6961 0 1.53 1.53
5 82.6961 0 1.53 1.42
6 90.4638 0.136826 1.53 1.101
7 90.4638 0 1.42 1.101
8 98.2315 0.164736 1.101 1.101

BondAngle Coeffs

1 82.6961 82.6961 0.220151 0.220151 1.53 1.53
2 82.6961 98.2315 0.354237 0.241108 1.53 1.101
3 82.6961 211.998 0 0 1.42 1.158
4 82.6961 82.6961 0.220151 0.220151 1.53 1.53
5 82.6961 82.6961 0 0 1.53 1.42
6 82.6961 98.2315 0.354237 0.241108 1.53 1.101
7 82.6961 98.2315 0 0 1.42 1.101
8 98.2315 98.2315 0.303553 0.303553 1.101 1.101

Dihedral Coeffs # class2xe

1 0 0 0.0316 0 -0.1681 0
2 0 0 0.0316 0 -0.1681 0
3 -0.1432 0 0.0617 0 -0.1083 0
4 0 0 0 0 0 0
5 0 0 0 0 0 0
6 0 0 0.0514 0 -0.143 0
7 0 0 0.0514 0 -0.143 0
8 0 0 0.0316 0 -0.1681 0

AngleAngleTorsion Coeffs

1 0 110.77 109.5
2 -16.164 112.67 110.77
3 -12.564 110.77 110.77
4 0 109.5 180
5 0 109.5 180
6 -22.045 112.67 112.67
7 0 112.67 109.5
8 -16.164 112.67 110.77

EndBondTorsion Coeffs

1 2 1.5 0 0 0 0 0 0 1.101 1.42
2 2 2 0.2486 0.2422 -0.0925 0.0814 0.0591 0.2219 1.53 1.101
3 2 2 0.213 0.312 0.0777 0.213 0.312 0.0777 1.101 1.101
4 2 1.6 0 0 0 0 0 0 1.101 1.158
5 2 1.6 0 0 0 0 0 0 1.53 1.158
6 2 2 -0.0732 0 0 -0.0732 0 0 1.53 1.53
7 2 1.5 0 0 0 0 0 0 1.53 1.42
8 2 2 0.2486 0.2422 -0.0925 0.0814 0.0591 0.2219 1.53 1.101

MiddleBondTorsion Coeffs

1 2 0 0 0 1.53
2 2 -14.879 -3.6581 -0.3138 1.53
3 2 -14.261 -0.5322 -0.4864 1.53
4 1.5 0 0 0 1.42
5 1.5 0 0 0 1.42
6 2 -17.787 -7.1877 0 1.53
7 2 0 0 0 1.53
8 2 -14.879 -3.6581 -0.3138 1.53

BondBond13 Coeffs

1 90.4638 0 1.101 1.42
2 90.4638 0 1.53 1.101
3 98.2315 0 1.101 1.101
4 155.115 0 1.101 1.158
5 147.347 0 1.53 1.158
6 82.6961 0 1.53 1.53
7 82.6961 0 1.53 1.42
8 90.4638 0 1.53 1.101

AngleTorsion Coeffs

1 0 0 0 0 0 0 110.77 109.5
2 -0.2454 0 -0.1136 0.3113 0.4516 -0.1988 112.67 110.77
3 -0.8085 0.5569 -0.2466 -0.8085 0.5569 -0.2466 110.77 110.77
4 0 0 0 0 0 0 109.5 180
5 0 0 0 0 0 0 109.5 180
6 0.3886 -0.3139 0.1389 0.3886 -0.3139 0.1389 112.67 112.67
7 0 0 0 0 0 0 112.67 109.5
8 -0.2454 0 -0.1136 0.3113 0.4516 -0.1988 112.67 110.77

Improper Coeffs # class2

1 0 0
2 0 0
3 0 0
4 0 0
5 0 0

AngleAngle Coeffs

1 -1.3199 -1.3199 0.1184 112.67 110.77 110.77
2 0.2738 -0.4825 0.2738 110.77 110.77 107.66
3 0 0 0 112.67 109.5 109.5
4 -1.3199 -1.3199 0.1184 112.67 110.77 110.77
5 0 0 0 109.5 109.5 110.77

Atoms # full

1 1 2 -0.106 1.0630629770819504 3.3116803325100514 4.309920180137044 0 0 0
13 3 2 -0.106 0.9300461924555032 7.622094876152932 1.790425552794157 0 0 0
109 1 2 -0.106 6.09436233990308 3.255741001829809 4.162731036827866 0 0 0
110 1 4 0.053 6.148051728013819 2.666029348586032 5.179787529894695 0 0 0
111 1 1 0.106 4.83561515262414 2.8820888726754577 3.303351268502152 0 0 0
112 1 4 0.053 4.564029727130899 3.5561294978413893 2.4036795712736994 0 0 0
113 1 3 0.271 4.957235415480461 1.627687273527275 2.8888057179850355 0 0 0
115 1 4 0.053 5.999219045034161 4.234862125050911 4.843670279352197 0 0 0
137 3 2 -0.106 6.143039580962306 7.652880446036339 1.6676929558096973 0 0 0
138 3 4 0.053 6.222106766393744 6.709277262356351 2.2094646155922373 0 0 0
139 3 1 0.106 4.77169240463373 7.553553664086679 0.8125127339781985 0 0 0
225 9 3 0.271 4.657545175129114 7.392039532310815 5.276473096022109 0 0 0
226 9 5 -0.43 4.5135010815268855 6.502483984477518 4.565927345688107 0 0 0
757 1 2 -0.106 3.6063109430999942 3.1735317165595025 4.145333585645526 0 0 0
758 1 4 0.053 3.47148516818345 2.3683304948227195 4.920276771681787 0 0 0
759 1 1 0.106 2.2671335018596377 3.1657846304486568 3.4063017666547593 0 0 0
760 1 4 0.053 2.0595334201446427 2.2981186922509194 2.8303705586494643 0 0 0
761 1 3 0.271 2.1146371584697734 4.161569586617118 2.371985199316809 0 0 0
762 1 5 -0.43 2.051395372257999 4.8341417192972065 1.436116121780407 0 0 0
763 1 4 0.053 3.817691248835662 4.03834982986162 4.699198143402508 0 0 0
785 3 2 -0.106 3.592785349299785 7.584845502336826 1.738576548478614 0 0 0
786 3 4 0.053 3.3829786860393805 6.659476736752364 2.3469822641775755 0 0 0
1011 1 1 0.106 7.454557288022059 3.0348538360082005 3.3387450578896027 0 0 0
1013 1 3 0.271 7.4231560166562875 3.814589698246007 2.1124818017400853 0 0 0
14 3 4 0.053 0.9613154482504257 6.717174522030452 2.327737554600666 0 0 0
1014 1 5 -0.43 7.272664341545671 4.540743398029322 1.1907835015219372 0 0 0
1012 1 4 0.053 7.570012290080877 1.8550253316721403 3.1390589926895798 0 0 0
1039 3 1 0.106 7.460069421450777 7.908997155530079 0.856874881059918 0 0 0
1586 31 4 0.053 1.082357330844156 1.3008450340475601 0.1919455388770252 0 0 1
872 9 4 0.053 2.269346257069727 7.983667372093998 5.319097648620901 0 0 0
1790 31 4 0.053 6.283946613679348 2.063880691181785 0.14455402749944274 0 0 1
1098 7 5 -0.43 6.839839812779305 5.511554415506066 7.100046095421773 0 0 0
2438 31 4 0.053 3.636650205687959 1.643777240915618 0.3036980502150295 0 0 1
787 3 1 0.106 2.269114275250754 7.986636529777914 1.032976406116164 0 0 0
1124 9 4 0.053 7.3312202103408435 8.17455129708242 5.184165307004077 0 0 0
2 1 4 0.053 1.0814467844329885 2.5482273412342025 5.140957229079255 0 0 0
222 9 4 0.053 6.255514437196878 7.511426738029619 7.565551410717072 0 0 0
846 7 5 -0.43 2.3305039106870464 5.645189817889179 8.172508097229237 0 0 0
50 9 4 0.053 1.12801455334447 7.314804085633585 7.421742820303906 0 0 0
870 9 4 0.053 3.4401743904073956 7.742379744145713 7.687011006688184 0 0 0
1096 7 4 0.053 7.4159742621602085 2.505869738762189 7.456203215499324 0 0 0
844 7 4 0.053 2.4503470682641884 2.792028177234272 7.797793166563267 0 0 0
197 7 3 0.271 4.779971706748323 1.5888748535501704 7.823093838698501 0 0 0
196 7 4 0.053 4.7407487921331395 3.5052399222560036 7.777709301801626 0 0 0
1097 7 3 0.271 7.06215595258959 4.469435806701595 7.6178358999626 0 0 0
3 1 4 0.053 1.0001634291837438 4.246349812014438 4.96567404053395 0 0 0
49 9 2 -0.106 1.016241804555859 8.305521523317065 7.007301363109692 0 0 0
845 7 3 0.271 2.2844224312304897 4.584616007820298 8.4715136862833 0 0 0
788 3 4 0.053 2.306065404692286 7.441183697135629 0.026123041877413405 0 0 0
141 3 3 0.271 4.7444929772889 6.31167851142038 0.16894723255377625 0 0 0
1040 3 4 0.053 7.398992665673449 7.214594268665003 -0.019149344386385173 0 0 0
791 3 4 0.053 3.8209387476054903 8.345003597686041 2.556898480368019 0 0 0
195 7 1 0.106 4.753596508915622 2.791541462976787 8.607030750817879 0 0 0
1095 7 1 0.106 7.275404146892861 3.2999037603679082 8.27880604607487 0 0 0
1010 1 4 0.053 8.48279167066198 2.6618455047044023 5.116777126712066 0 0 0
1015 1 4 0.053 8.294089011203265 4.534055875373005 4.450976210707512 0 0 0
1038 3 4 0.053 8.883967732975384 6.755625531222252 2.0684058059687236 0 0 0
1009 1 2 -0.106 8.60544042078912 3.4235388280282812 4.332306019332814 0 0 0
361 1 2 -0.106 11.183288687611492 3.3454431868999355 4.582412488624367 0 0 0
362 1 4 0.053 11.16884487455785 2.794111957761851 5.591405019641425 0 0 0
363 1 1 0.106 9.961400468429806 3.192392838117976 3.6603437448102247 0 0 0
364 1 4 0.053 10.081780986428443 3.8252532942178594 2.8565928499118884 0 0 0
367 1 4 0.053 11.177560528632524 4.32978009242328 4.77339611785907 0 0 0
389 3 2 -0.106 11.309952817826797 7.728635404722778 1.5537905806515018 0 0 0
390 3 4 0.053 11.298351101704807 6.755789674840047 2.107248807072798 0 0 0
391 3 1 0.106 10.059538189414322 7.818765960353258 0.6990412785700318 0 0 0
477 9 3 0.271 9.864689713978406 7.364099028474948 4.88672901248506 0 0 0
478 9 5 -0.43 9.862704911068306 6.507593919305569 4.137599289857803 0 0 0
613 1 1 0.106 14.78295089337656 2.6948062126402186 3.8962163507919794 0 0 0
614 1 4 0.053 14.79760884093164 2.993820286187178 2.7714026360225725 0 0 0
629 3 1 0.106 15.218439735668396 7.535561153082214 0.837565569971939 0 0 0
679 9 3 0.271 15.25483635199869 7.121271402134839 4.9821694964017675 0 0 0
680 9 5 -0.43 15.349640836808534 6.169275372841505 4.3378237100325405 0 0 0
1261 1 2 -0.106 13.75598325271794 3.438458757342017 4.614097350386515 0 0 0
1262 1 4 0.053 13.820522039327157 2.7408654658128038 5.4107228505794644 0 0 0
1263 1 1 0.106 12.4964934133406 3.1024187865901656 3.877937820494228 0 0 0
1264 1 4 0.053 12.592864908801324 1.9711262977266022 3.7718399247839858 0 0 0
1265 1 3 0.271 12.487771295331106 3.853429997940613 2.6489505404893654 0 0 0
1266 1 5 -0.43 12.492553321645083 4.524406716120863 1.6624239184879779 0 0 0
1267 1 4 0.053 13.8887924127134 4.4292166006973375 5.020966546655507 0 0 0
1289 3 2 -0.106 13.905344871304035 7.711799463682909 1.6453322846442575 0 0 0
1290 3 4 0.053 13.902013796107841 6.810916191567165 2.3591067254953644 0 0 0
1037 3 2 -0.106 8.82477087684735 7.73198107704813 1.6117533756363487 0 0 0
615 1 3 0.271 14.83675099697487 1.2638621218477926 3.9089459700695235 0 0 0
365 1 3 0.271 9.899992434995792 1.7583716704606487 3.0735320246151208 0 0 0
1376 9 4 0.053 12.411797285139516 7.798621792820867 4.962912661299089 0 0 0
1350 7 5 -0.43 12.654681940387109 5.123527170030005 7.296078497901832 0 0 0
474 9 4 0.053 11.302105324302847 7.383560495936389 7.204526464681064 0 0 0
1122 9 4 0.053 8.659982604407165 7.478443870036048 7.484342536532963 0 0 0
1374 9 4 0.053 13.89742853750746 7.327614542504574 7.089438734049436 0 0 0
1348 7 4 0.053 12.371411377560637 2.2586205502442627 7.8389348356925765 0 0 0
448 7 4 0.053 10.276665973880483 4.214429073860335 8.317478547338924 0 0 0
1349 7 3 0.271 12.621940979745634 4.139422671312209 7.8618938104527185 0 0 0
1291 3 1 0.106 12.662377315896487 7.938415723546684 0.7828230157278747 0 0 0
2690 31 4 0.053 8.763944471712785 2.3437693415475325 -0.04202134091263962 0 0 1
662 7 4 0.053 14.926673463442288 3.166701321443994 7.828886652534408 0 0 0
2042 31 4 0.053 11.127767297418725 2.0922459834552796 -0.10060898796617271 0 0 1
1373 9 2 -0.106 13.862067309207882 8.300013929372763 6.60538328356137 0 0 0
449 7 3 0.271 9.875804902248223 2.282092156765006 7.472432591306682 0 0 0
663 7 3 0.271 15.15555984405369 1.1237285856455905 8.192865068367233 0 0 0
677 9 1 0.106 15.182606584579114 8.345648671205275 5.764729041761131 0 0 0
631 3 3 0.271 15.08251369513226 6.405057871900495 -0.04993894096126619 0 0 0
366 1 5 -0.43 9.807353556012977 0.702863570843668 2.713803606723437 0 0 0
450 7 5 -0.43 9.936512521762852 1.4624535187216194 6.6651610047550145 0 0 0
1336 6 5 -0.43 12.851801103704304 0.7637110175694628 6.104957305152969 0 1 0
447 7 1 0.106 9.841836709188062 3.1850455780696114 8.553416275143956 0 0 0
2942 31 4 0.053 13.638086510144708 2.2107332011174217 0.18116708488170113 0 0 1
6 1 4 0.053 16.36016813511774 4.219270866869314 4.824014642875565 0 0 0
5 1 4 0.053 16.05985650060372 2.7322582715273427 5.771566347099571 0 0 0
4 1 2 -0.106 16.12372818363204 3.0800231692600706 4.624326172105594 0 0 0
17 3 4 0.053 16.661181829675222 6.563908952384011 2.207330909830566 0 0 0
116 1 2 -0.106 21.517285074379224 2.831274039933915 4.539216372272414 0 0 0
117 1 4 0.053 21.450295455910087 1.8846293703442227 5.10150339307764 0 0 0
118 1 1 0.106 20.24548328959755 2.6847454687495604 3.713149517131603 0 0 0
119 1 4 0.053 20.163359064397227 3.656349138462865 3.049731779458181 0 0 0
122 1 4 0.053 21.50317719305216 3.6941720604203283 5.200226944901426 0 0 0
145 3 4 0.053 21.421081036873048 6.74418260083928 2.2806603606060767 0 0 0
146 3 1 0.106 20.380705825798223 7.696901085848653 0.7342613059288315 0 0 0
232 9 3 0.271 20.25537175849253 7.187190052865116 4.982381635693081 0 0 0
233 9 5 -0.43 20.170717083796063 6.317684056483947 4.234119119646608 0 0 0
764 1 2 -0.106 18.71108096582725 3.0238674170845616 4.36541140854993 0 0 0
765 1 4 0.053 18.721658973336638 2.397074491648237 5.212000815883365 0 0 0
766 1 1 0.106 17.36010138952274 2.793301777236099 3.6995570796763926 0 0 0
767 1 4 0.053 17.466028687135513 1.8540950383492962 3.1367696293533998 0 0 0
768 1 3 0.271 17.378306905419223 3.701737207048129 2.5702680841504013 0 0 0
769 1 5 -0.43 17.416351023628494 4.424107214171485 1.7122644825431574 0 0 0
770 1 4 0.053 18.822213107325 4.012393567738317 4.596104351671987 0 0 0
792 3 2 -0.106 18.98453272116091 7.912648848688275 1.542866620924632 0 0 0
793 3 4 0.053 19.06460498192066 7.231461248144228 2.46164403230441 0 0 0
1018 1 1 0.106 22.815287230936995 2.9585439442962183 3.7873432070526327 0 0 0
1019 1 4 0.053 22.939700477151142 1.9368400617706754 3.2641573362700154 0 0 0
1020 1 3 0.271 22.66101235844483 3.777088166763768 2.534269971595989 0 0 0
1021 1 5 -0.43 22.52426889176857 4.395202561686425 1.6404481906302115 0 0 0
16 3 2 -0.106 16.486729858145388 7.516435988116946 1.6390384291292215 0 0 0
144 3 2 -0.106 21.550940716626457 7.660498979806349 1.7603546913934571 0 0 0
120 1 3 0.271 20.242505182062274 1.2362989451129542 3.149595370771158 0 0 0
794 3 1 0.106 17.6650874317575 7.793000027131632 0.7120664701462512 0 0 0
879 9 4 0.053 17.881836130836845 8.056039904160226 4.899022877103074 0 0 0
1797 31 4 0.053 21.564947003035442 1.9736879892858232 0.0074544395244757755 0 0 1
229 9 4 0.053 21.70572541373093 7.474113001785642 7.542172096864758 0 0 0
53 9 4 0.053 16.52959473954941 7.325540599857746 7.080206220096016 0 0 0
1105 7 5 -0.43 22.947807050775822 5.119685063361641 7.145855771178015 0 0 0
877 9 4 0.053 18.901954582190776 7.255291229877664 7.295747746682623 0 0 0
851 7 4 0.053 17.698493487794288 2.1168790322356026 7.83722818988573 0 0 0
1103 7 4 0.053 23.173731648142756 2.079132182775333 7.8577412807935225 0 0 0
1104 7 3 0.271 22.898850908355683 4.122953183732987 7.751597572444932 0 0 0
1046 3 1 0.106 22.861695764015195 7.968074164697489 1.0854912177913745 0 0 0
204 7 3 0.271 20.410684507963303 1.329323630188108 7.789862356100251 0 0 0
1131 9 4 0.053 23.00698323317642 7.916928520292287 5.107524370561279 0 0 0
203 7 4 0.053 20.299890123417534 3.371506525661498 7.807155402390236 0 0 0
853 7 5 -0.43 17.957906692093125 5.006648292580832 7.332887532225938 0 0 0
852 7 3 0.271 17.914363275177912 4.033865494774439 7.952599758531711 0 0 0
2445 31 4 0.053 18.889058940033017 2.3206683903387297 0.10548144424683509 0 0 1
230 9 1 0.106 20.314887857693137 8.339711644495404 6.015883395947733 0 0 0
876 9 2 -0.106 19.034565312927747 8.256084699491957 6.786346725554004 0 0 0
228 9 2 -0.106 21.620534635125715 8.326293714405445 6.846644655050747 0 0 0
148 3 3 0.271 20.353388800498173 6.526255541758969 -0.023375950180172356 0 0 0
1047 3 4 0.053 22.814001015376476 7.315145774005795 0.18616323154183662 0 0 0
52 9 2 -0.106 16.46008741555609 8.332125944162254 6.674641139462797 0 0 0
1102 7 1 0.106 22.968724777811758 2.970595066203098 8.53552070979815 0 0 0
202 7 1 0.106 20.36547549783335 2.481278894654169 8.569922569040463 0 0 0
18 3 4 0.053 16.44230630452123 8.345083413511617 2.4619352326147923 0 0 0
1589 31 4 0.053 16.549605157530074 2.130232898216666 0.2161275065351676 0 0 1
1022 1 4 0.053 23.99903994476753 4.38522746032003 5.047378519311084 0 0 0
1045 3 4 0.053 24.109568353054925 6.727180865594981 2.3990348659289866 0 0 0
1017 1 4 0.053 24.257363836542254 2.827350940987077 5.425290732051686 0 0 0
1016 1 2 -0.106 24.09333534647238 3.407055491958414 4.549546634889491 0 0 0
684 9 5 -0.43 30.628770921003827 6.128361492420901 4.7550005447674915 0 0 0
368 1 2 -0.106 26.65656189022301 3.2561704857540636 4.198217301360221 0 0 0
369 1 4 0.053 26.659595986321172 3.05236855329538 5.257300770851944 0 0 0
370 1 1 0.106 25.20553813132946 3.121756940126599 3.5463918218626773 0 0 0
371 1 4 0.053 25.166230009955257 3.955780776331088 2.819181240329889 0 0 0
374 1 4 0.053 26.827938205502598 4.321922961006422 4.53205543147656 0 0 0
397 3 4 0.053 26.563394718908363 6.752085139067476 2.416536509230809 0 0 0
398 3 1 0.106 25.416407007152607 7.686164174893022 0.9483050494958967 0 0 0
484 9 3 0.271 25.696456604109976 7.408567413172941 5.24864463132726 0 0 0
485 9 5 -0.43 25.695689164819903 6.640968754637497 4.393016615585787 0 0 0
617 1 1 0.106 30.66595192620455 3.117613090417959 3.3330564494743906 0 0 0
618 1 4 0.053 30.780730682922048 3.7174172757476405 2.398443416309477 0 0 0
633 3 1 0.106 30.575759715058 7.6125747987761 0.8773668783570792 0 0 0
683 9 3 0.271 30.6414154687438 7.083917982123831 5.423576839054185 0 0 0
1044 3 2 -0.106 24.173621113094114 7.723029936087001 1.8853978528020363 0 0 0
1268 1 2 -0.106 29.29031146917157 3.345838266176981 4.228236669863899 0 0 0
1269 1 4 0.053 29.48862755999496 2.4840675641140813 4.870216342211846 0 0 0
1270 1 1 0.106 27.963269060167114 3.079835281998354 3.362137595774031 0 0 0
1271 1 4 0.053 28.265239905305897 2.0918355468451812 3.1819315735757896 0 0 0
1272 1 3 0.271 28.03314572168162 3.9161353322879977 2.2865296492741374 0 0 0
1273 1 5 -0.43 28.143065735255114 4.504982847706454 1.354180358946594 0 0 0
1274 1 4 0.053 29.427298401184466 4.2290428523967005 4.8730990790186075 0 0 0
1296 3 2 -0.106 29.303154325976834 7.479843306305201 1.7509083711056779 0 0 0
1297 3 4 0.053 29.308708877401664 6.415991602284438 2.0691406294416095 0 0 0
372 1 3 0.271 25.370714490445124 1.8588335212542983 2.9487887716745584 0 0 0
396 3 2 -0.106 26.647688021701725 7.680282336362533 1.794231870431376 0 0 0
619 1 3 0.271 30.443277058782442 1.7628801961171996 2.789656585706592 0 0 0
1383 9 4 0.053 28.20611326385464 8.27344597488931 5.03918101250762 0 0 0
1298 3 1 0.106 27.957143389978313 7.826870878119436 1.014749994083211 0 0 0
481 9 4 0.053 27.016710853720618 7.373439591494275 7.587954480929571 0 0 0
1381 9 4 0.053 29.117323748302987 7.248748856916103 7.136249087543265 0 0 0
1129 9 4 0.053 24.01982015956461 7.1886563195837265 7.262620636029824 0 0 0
455 7 4 0.053 25.49501552196275 3.5715933649890403 7.99467550777916 0 0 0
1355 7 4 0.053 28.041501645871442 2.189852511525044 7.809809161616559 0 0 0
666 7 4 0.053 30.79781613215225 3.6316907938092164 8.107928655370536 0 0 0
1357 7 5 -0.43 28.54074879136531 5.179948451915394 7.4143974821465575 0 0 0
1356 7 3 0.271 28.315052684433823 4.229423531171992 7.9585187186699375 0 0 0
456 7 3 0.271 25.514402674140136 1.5134483474374458 7.9074430287872985 0 0 0
667 7 3 0.271 30.799065583363912 1.5246769514774927 7.8406401313651335 0 0 0
2049 31 4 0.053 26.727684565224763 1.766023865040074 0.09839126624792921 0 0 1
2949 31 4 0.053 29.2388689129802 1.8744620408993764 0.04981022941603705 0 0 1
2697 31 4 0.053 24.04979433315495 2.2107062898298127 0.17036107665004663 0 0 1
1128 9 2 -0.106 24.232290516407936 8.227061961244658 6.908985090716587 0 0 0
1050 3 4 0.053 24.341822691354437 8.311350209375618 2.7706679890011396 0 0 0
400 3 3 0.271 25.433760311538137 6.495214774636556 0.03598008392260124 0 0 0
681 9 1 0.106 30.693049964974826 8.26439985462726 6.129770615858852 0 0 0
480 9 2 -0.106 26.902502415776624 8.297559398136393 6.9567443512991956 0 0 0
1380 9 2 -0.106 29.39577396347405 8.300096404908437 6.941569669381996 0 0 0
620 1 5 -0.43 30.158738447889476 0.7117783773085474 2.071224188296849 0 0 0
1299 3 4 0.053 27.84613495353601 7.1481521791871305 0.1708688480415212 0 0 0
1302 3 4 0.053 29.266371609082803 8.095734247129158 2.617866808481323 0 0 0
373 1 5 -0.43 25.420761588570826 0.7746398450331449 2.4381918080669776 0 0 0
1343 6 5 -0.43 27.93289271178049 0.8619001401659904 5.553689521956991 0 1 0
635 3 3 0.271 30.615535030516057 6.654312637881643 -0.08748281636282576 0 0 0
869 9 2 -0.106 3.4759791563390343 8.53020578938315 7.016083864652912 0 0 0
221 9 2 -0.106 6.104763852024065 8.433691044360529 6.941408659726646 0 0 0
223 9 1 0.106 4.793208885447723 8.483226326973668 6.149602219856324 0 0 0
143 3 4 0.053 6.028361295712595 8.399308761544814 2.509319242179046 0 0 0
15 3 4 0.053 0.7777759419186578 8.466671562640247 2.51464649519837 0 0 0
871 9 1 0.106 2.219795623943055 8.66703797445464 6.174213584382273 0 0 0
227 9 4 0.053 5.935001543107504 9.161793186539601 7.741083649183433 0 0 0
1123 9 1 0.106 7.384293365568851 8.808650868669982 6.12627992917425 0 0 0
875 9 4 0.053 3.5317313003715545 9.474294787514339 7.654007577773124 0 0 0
224 9 4 0.053 4.789711526227458 9.455556937554517 5.614221195976015 0 0 0
25 5 2 -0.106 0.9438854320280616 13.455565519906447 3.767669193390436 0 0 0
165 5 2 -0.106 6.0603962784185486 13.593380776006036 3.480317069425945 0 0 0
166 5 4 0.053 6.1001552193791575 13.379205322871599 4.614920282996215 0 0 0
167 5 1 0.106 4.710771143577512 12.971040575732438 2.881563645241462 0 0 0
168 5 4 0.053 4.7542757965002105 13.163527510359351 1.7766547132595314 0 0 0
169 5 3 0.271 4.692194489541853 11.579878633035616 3.192813056336068 0 0 0
170 5 5 -0.43 4.676833366046657 10.447386210640456 3.4228066899652685 0 0 0
171 5 4 0.053 6.049350320376119 14.733967919786709 3.4312960651922246 0 0 0
813 5 2 -0.106 3.483062990322055 13.620975924040124 3.5323560381872934 0 0 0
814 5 4 0.053 3.4896564006508104 13.380684374700412 4.600336562493145 0 0 0
815 5 1 0.106 2.2017491487397143 13.089232779237705 2.931487655702715 0 0 0
816 5 4 0.053 2.2894943429956918 12.052308941096605 2.7711069512917113 0 0 0
817 5 3 0.271 2.092305353142458 13.804711111103163 1.640200040609144 0 0 0
819 5 4 0.053 3.3380749018293776 14.681888356112664 3.3220699515010006 0 0 0
873 9 3 0.271 2.2189290231858507 10.036797808266655 5.677102748420691 0 0 0
874 9 5 -0.43 2.181511485978857 11.116014639015733 5.341506912429605 0 0 0
1067 5 1 0.106 7.356192145754223 13.084273166410698 2.7316091522974126 0 0 0
1068 5 4 0.053 7.271752473353224 11.994060483189516 2.6874125654549768 0 0 0
1069 5 3 0.271 7.308225891073897 13.540185492289808 1.44353745893476 0 0 0
1125 9 3 0.271 7.3307093928183775 10.091949338611943 5.65698412820383 0 0 0
1126 9 5 -0.43 7.265881833278252 11.153997418681856 5.161961443097129 0 0 0
26 5 4 0.053 0.9644279243738221 13.07567939900943 4.814660916440272 0 0 0
27 5 4 0.053 0.9487207139660125 14.538930286675566 3.8086549123324893 0 0 0
902 11 5 -0.43 2.0436914910255854 15.543252324104861 5.9814989917323205 0 0 0
1070 5 5 -0.43 7.248448879352016 13.875323043523025 0.31585486216046343 0 0 0
901 11 3 0.271 2.1152555863558504 14.729569159240896 6.864555693022812 0 0 0
254 11 5 -0.43 4.823707727026911 11.418342847852953 6.811270566015908 0 0 0
789 3 3 0.271 2.1806607659662296 9.404384411530426 0.807654758709525 0 0 0
1153 11 3 0.271 7.317239472776267 14.612882801534576 6.865597743159814 0 0 0
51 9 4 0.053 0.9679348562433556 8.94147987492408 7.913791903255049 0 0 0
252 11 4 0.053 4.768457437359953 14.344591395792987 7.170728925334802 0 0 0
1152 11 4 0.053 7.3607020211747844 12.723133438718483 7.596498443449901 0 0 0
900 11 4 0.053 2.317555782878511 12.774333015076902 7.409979758141403 0 0 0
253 11 3 0.271 4.810085601236777 12.418690476979052 7.377668939513547 0 0 0
1151 11 1 0.106 7.33682985874608 13.741402870234976 8.024576536330635 0 0 0
899 11 1 0.106 2.1697464287375157 13.737143410408752 7.938708770117493 0 0 0
251 11 1 0.106 4.76585086394211 13.64040682243274 8.013514062337936 0 0 0
1041 3 3 0.271 7.2318611066733585 9.226399568831527 0.34987459128497267 0 0 0
140 3 4 0.053 4.720275697053623 8.363929986042525 0.11588804414056561 0 0 0
1154 11 5 -0.43 7.351829589975616 15.324214022152535 5.939293338493292 0 0 0
818 5 5 -0.43 1.9748365082624029 14.382102375701395 0.6571932177261848 0 0 0
1042 3 5 -0.43 7.047492788765682 10.326019474518349 -0.09791448288535672 0 0 0
790 3 5 -0.43 2.081731438265089 10.514248966154435 0.6533122573008077 0 0 0
1121 9 2 -0.106 8.712629849819937 8.43418862912829 6.88292672575784 0 0 0
1043 3 4 0.053 8.970981121792594 8.468818963053554 2.4240128082049788 0 0 0
395 3 4 0.053 11.295451224151215 8.466407684370658 2.373986643975318 0 0 0
473 9 2 -0.106 11.227647347411311 8.372356541355437 6.67485501671749 0 0 0
475 9 1 0.106 9.906708376606726 8.458639483928884 5.838088498850905 0 0 0
1295 3 4 0.053 13.97609255004277 8.48668376462416 2.502487178735096 0 0 0
1375 9 1 0.106 12.47779485701284 8.53787377130716 5.816748765347972 0 0 0
1066 5 4 0.053 8.55978448898952 13.262521625335259 4.436221175383671 0 0 0
1065 5 2 -0.106 8.703945788143546 13.468230773663484 3.3670855015429155 0 0 0
1071 5 4 0.053 8.853514517499756 14.567920895037227 3.3246868502012146 0 0 0
476 9 4 0.053 9.937660442435835 9.368323625698507 5.24970895799184 0 0 0
678 9 4 0.053 15.127150906099965 9.209290971205522 5.029262089946303 0 0 0
417 5 2 -0.106 11.278479145924752 13.354642169520307 3.336163769711578 0 0 0
418 5 4 0.053 11.44577309130992 13.047764537029394 4.4293957565147695 0 0 0
419 5 1 0.106 9.978199422750732 12.86484578843064 2.740708032227887 0 0 0
420 5 4 0.053 9.881454020920206 12.989901671008994 1.697060552045607 0 0 0
421 5 3 0.271 9.840356574326744 11.43840590975469 2.883884365553999 0 0 0
422 5 5 -0.43 9.720527131396821 10.289588754327061 2.934699854567475 0 0 0
423 5 4 0.053 11.21974698948608 14.46646780891325 3.351956709028338 0 0 0
645 5 1 0.106 15.164474405382919 12.671517891151845 2.7863821682186605 0 0 0
646 5 4 0.053 15.1926988666736 12.949282612038344 1.715162959657648 0 0 0
647 5 3 0.271 15.153167135384807 11.27678247951373 2.845152831221917 0 0 0
648 5 5 -0.43 15.137215330831877 10.129379432338702 2.867485442239849 0 0 0
1317 5 2 -0.106 13.844786884792848 13.25715355950197 3.410806274721274 0 0 0
1318 5 4 0.053 13.794840857987037 12.847790210056445 4.440053009619912 0 0 0
1319 5 1 0.106 12.565920635695058 12.896272092244478 2.584396109217449 0 0 0
1320 5 4 0.053 12.61876327052886 11.84446662290039 2.3134174228686555 0 0 0
1321 5 3 0.271 12.552903791721604 13.51056299649074 1.294350507404476 0 0 0
1323 5 4 0.053 13.85696284091045 14.325308318828734 3.463016514759658 0 0 0
1377 9 3 0.271 12.336163928381023 9.848869929489469 5.297755440318897 0 0 0
1378 9 5 -0.43 12.204976953413057 10.932783836717435 4.795305972777124 0 0 0
1322 5 5 -0.43 12.527384028625644 14.081477139138801 0.3018725072592409 0 0 0
1405 11 3 0.271 12.52052309037585 14.820420651284834 6.870204968388328 0 0 0
1293 3 3 0.271 12.746781595427427 9.367824985012104 0.5984777547754403 0 0 0
504 11 4 0.053 9.924747362132264 14.448758787025021 7.128769589825472 0 0 0
694 11 4 0.053 14.952967175212938 14.077592778414273 6.82567626337983 0 0 0
1127 9 4 0.053 8.865936867720853 9.241603630203436 7.596912692237057 0 0 0
696 11 5 -0.43 14.937442336937709 11.006415999439307 7.3501895718726145 0 0 0
506 11 5 -0.43 10.097291701511386 11.399144414557284 7.097688702654618 0 0 0
479 9 4 0.053 11.187985532007923 9.181741606316235 7.409751104330658 0 0 0
1379 9 4 0.053 13.991979262434787 9.038417067425668 7.448721157069808 0 0 0
695 11 3 0.271 14.940090861540885 12.115245904888678 7.591658727479763 0 0 0
1404 11 4 0.053 12.42575340136514 12.904539838418263 7.493192883295744 0 0 0
505 11 3 0.271 10.017739888686103 12.489914741214312 7.5313875398848005 0 0 0
693 11 1 0.106 15.004809892090904 13.567961968233558 7.835068217748056 0 0 0
1403 11 1 0.106 12.486754822919625 13.94473852989948 7.950269115290226 0 0 0
503 11 1 0.106 9.931196777325377 13.782690878270841 8.041037983183774 0 0 0
1406 11 5 -0.43 12.528545540440858 15.517871804318371 5.9579513528094905 0 0 0
1294 3 5 -0.43 12.81176190628778 10.528192558761884 0.5090435567684349 0 0 0
392 3 4 0.053 10.178924423915973 8.782393664031062 0.13519404053203105 0 0 0
630 3 4 0.053 15.312014124693444 8.428663182893565 0.21713562906476574 0 0 0
878 9 1 0.106 17.778917490190004 8.560092749915079 5.88141421010006 0 0 0
150 3 4 0.053 21.31901189075367 8.457759553611035 2.485579920124482 0 0 0
798 3 4 0.053 18.902698585182137 8.85258184602048 2.1163837526118927 0 0 0
1130 9 1 0.106 22.98412316423041 8.54221123525147 6.049537177401121 0 0 0
30 5 4 0.053 16.379642333085133 14.428815748336396 3.5336903010456426 0 0 0
28 5 2 -0.106 16.434313296750823 13.296363336522663 3.504050317818358 0 0 0
29 5 4 0.053 16.461711752476695 12.91699090200662 4.543626857457203 0 0 0
231 9 4 0.053 20.38139859248679 9.293453472338436 5.4256964315614615 0 0 0
172 5 2 -0.106 21.559868532844163 13.409915935504184 3.5401337008782803 0 0 0
173 5 4 0.053 21.786794021322045 12.923804991148335 4.504056072730619 0 0 0
174 5 1 0.106 20.30523900243896 12.73118566716532 2.9758491892167207 0 0 0
175 5 4 0.053 20.284007935376863 12.838975160031984 1.863082292672544 0 0 0
176 5 3 0.271 20.45231935556417 11.37712987857475 3.0820826130686942 0 0 0
177 5 5 -0.43 20.50161621812525 10.212013218339656 3.1818246655525524 0 0 0
178 5 4 0.053 21.441022117950602 14.512228195253817 3.6251793093854614 0 0 0
820 5 2 -0.106 19.030405932484484 13.40539627640324 3.5261376838662097 0 0 0
821 5 4 0.053 18.940370760661224 13.307957652055249 4.671632990830942 0 0 0
822 5 1 0.106 17.71036567315621 12.894774153170932 2.766046012856939 0 0 0
823 5 4 0.053 17.732199041772155 11.781863988257019 2.605930822974971 0 0 0
824 5 3 0.271 17.71337091768227 13.554520790763812 1.4957050632663034 0 0 0