LAMMPS data file via write_data, version 27 Jun 2024, timestep = 1000000, units = real

3024 atoms
5 atom types
3024 bonds
5 bond types
5616 angles
8 angle types
9072 dihedrals
8 dihedral types
3456 impropers
5 improper types

0.48552803165635616 31.355583302343085 xlo xhi
0.8076107794196687 30.652306392579327 ylo yhi
0.6055971268416229 34.07504918215854 zlo zhi
0.11459596775605499 0 0.7595902101394717 xy xz yz

Atom Type Labels

1 c1
2 c2
3 ct
4 hpan
5 nt

Bond Type Labels

1 c1-c2
2 c1-ct
3 c1-hpan
4 c2-hpan
5 ct-nt

Angle Type Labels

1 c1-c2-c1
2 c1-c2-hpan
3 c1-ct-nt
4 c2-c1-c2
5 c2-c1-ct
6 c2-c1-hpan
7 ct-c1-hpan
8 hpan-c2-hpan

Dihedral Type Labels

1 hpan-c2-c1-ct
2 c2-c1-c2-hpan
3 hpan-c1-c2-hpan
4 hpan-c1-ct-nt
5 c2-c1-ct-nt
6 c1-c2-c1-c2
7 c1-c2-c1-ct
8 c1-c2-c1-hpan

Improper Type Labels

1 c1-c2-c1-hpan-nb!=3
2 c1-c2-hpan-hpan-nb!=3
3 c2-c1-c2-ct-nb!=3
4 c2-c1-c2-hpan-nb!=3
5 c2-c1-ct-hpan-nb!=3

Masses

1 12.01115
2 12.01115
3 12.01115
4 1.00797
5 14.0067

Pair Coeffs # lj/class2/coul/long

1 0.054 4.01
2 0.054 4.01
3 0.064 4.01
4 0.02 2.3
5 0.065 3.57

Bond Coeffs # class2

1 1.53 299.67 -501.77 679.81
2 1.42 311.149 0 0
3 1.101 345 -691.89 844.6
4 1.101 345 -691.89 844.6
5 1.158 880 0 0

Angle Coeffs # class2

1 112.67 39.516 -7.443 -9.5583
2 110.77 41.453 -10.604 5.129
3 180 200 0 0
4 112.67 39.516 -7.443 -9.5583
5 109.5 46 0 0
6 110.77 41.453 -10.604 5.129
7 109.5 42 0 0
8 107.66 39.641 -12.921 -2.4318

BondBond Coeffs

1 0 1.53 1.53
2 3.3872 1.53 1.101
3 0 1.42 1.158
4 0 1.53 1.53
5 0 1.53 1.42
6 3.3872 1.53 1.101
7 0 1.42 1.101
8 5.3316 1.101 1.101

BondAngle Coeffs

1 8.016 8.016 1.53 1.53
2 20.754 11.421 1.53 1.101
3 0 0 1.42 1.158
4 8.016 8.016 1.53 1.53
5 0 0 1.53 1.42
6 20.754 11.421 1.53 1.101
7 0 0 1.42 1.101
8 18.103 18.103 1.101 1.101

Dihedral Coeffs # class2

1 0 0 0.0316 0 -0.1681 0
2 0 0 0.0316 0 -0.1681 0
3 -0.1432 0 0.0617 0 -0.1083 0
4 0 0 0 0 0 0
5 0 0 0 0 0 0
6 0 0 0.0514 0 -0.143 0
7 0 0 0.0514 0 -0.143 0
8 0 0 0.0316 0 -0.1681 0

AngleAngleTorsion Coeffs

1 0 110.77 109.5
2 -16.164 112.67 110.77
3 -12.564 110.77 110.77
4 0 109.5 180
5 0 109.5 180
6 -22.045 112.67 112.67
7 0 112.67 109.5
8 -16.164 112.67 110.77

EndBondTorsion Coeffs

1 0 0 0 0 0 0 1.101 1.42
2 0.2486 0.2422 -0.0925 0.0814 0.0591 0.2219 1.53 1.101
3 0.213 0.312 0.0777 0.213 0.312 0.0777 1.101 1.101
4 0 0 0 0 0 0 1.101 1.158
5 0 0 0 0 0 0 1.53 1.158
6 -0.0732 0 0 -0.0732 0 0 1.53 1.53
7 0 0 0 0 0 0 1.53 1.42
8 0.2486 0.2422 -0.0925 0.0814 0.0591 0.2219 1.53 1.101

MiddleBondTorsion Coeffs

1 0 0 0 1.53
2 -14.879 -3.6581 -0.3138 1.53
3 -14.261 -0.5322 -0.4864 1.53
4 0 0 0 1.42
5 0 0 0 1.42
6 -17.787 -7.1877 0 1.53
7 0 0 0 1.53
8 -14.879 -3.6581 -0.3138 1.53

BondBond13 Coeffs

1 0 1.101 1.42
2 0 1.53 1.101
3 0 1.101 1.101
4 0 1.101 1.158
5 0 1.53 1.158
6 0 1.53 1.53
7 0 1.53 1.42
8 0 1.53 1.101

AngleTorsion Coeffs

1 0 0 0 0 0 0 110.77 109.5
2 -0.2454 0 -0.1136 0.3113 0.4516 -0.1988 112.67 110.77
3 -0.8085 0.5569 -0.2466 -0.8085 0.5569 -0.2466 110.77 110.77
4 0 0 0 0 0 0 109.5 180
5 0 0 0 0 0 0 109.5 180
6 0.3886 -0.3139 0.1389 0.3886 -0.3139 0.1389 112.67 112.67
7 0 0 0 0 0 0 112.67 109.5
8 -0.2454 0 -0.1136 0.3113 0.4516 -0.1988 112.67 110.77

Improper Coeffs # class2

1 0 0
2 0 0
3 0 0
4 0 0
5 0 0

AngleAngle Coeffs

1 -1.3199 -1.3199 0.1184 112.67 110.77 110.77
2 0.2738 -0.4825 0.2738 110.77 110.77 107.66
3 0 0 0 112.67 109.5 109.5
4 -1.3199 -1.3199 0.1184 112.67 110.77 110.77
5 0 0 0 109.5 109.5 110.77

Atoms # full

2 1 4 0.053 1.0431070981713177 1.816776454989611 1.4409150764686607 0 0 0
109 1 2 -0.106 6.059655877892241 2.6187534203300196 1.2743071089773048 0 0 0
110 1 4 0.053 6.205056201278268 1.524274421130798 1.423402002864789 0 0 0
115 1 4 0.053 6.007197669009253 2.994051737298914 2.3411162223211326 0 0 0
139 3 1 0.106 4.913289673629344 7.37015886710791 3.8259747024836845 0 0 0
141 3 3 0.271 4.725375391688508 5.878488052726806 3.603837862785834 0 0 0
142 3 5 -0.43 4.488782337443706 4.750544076129307 3.4464333894715367 0 0 0
195 7 1 0.106 5.064722729661635 2.78523795568068 6.286340353964129 0 0 0
196 7 4 0.053 5.170619532327988 3.8517688159374943 6.019694312151047 0 0 0
197 7 3 0.271 4.988488241373939 1.9286032710107546 5.074182467895209 0 0 0
763 1 4 0.053 3.3395086239268092 2.909061034546346 2.2917710172075276 0 0 0
788 3 4 0.053 2.3612131265008323 7.068634524257611 3.4302248163509934 0 0 0
843 7 1 0.106 2.563808040548148 3.2453003078520846 6.324016888237945 0 0 0
844 7 4 0.053 2.627628674619445 2.7456112294202644 5.298744998344941 0 0 0
845 7 3 0.271 2.6064680930432136 4.69341150968571 6.358858792057244 0 0 0
846 7 5 -0.43 2.6429378500122724 5.876140037896832 6.334603357786077 0 0 0
1040 3 4 0.053 7.757878088806417 6.629333887319545 3.283033664373122 0 0 0
1095 7 1 0.106 7.627805170817226 2.9125828037792116 6.2112124287742825 0 0 0
1096 7 4 0.053 7.504106053266917 2.481114539094862 5.155301242329402 0 0 0
1097 7 3 0.271 7.671769385294972 4.307139769469584 6.095597788674959 0 0 0
1098 7 5 -0.43 7.759894106031577 5.4721407702525156 6.031986679898511 0 0 0
37 7 2 -0.106 1.2031706916719491 2.8155734658038813 6.9860154775593815 0 0 0
841 7 2 -0.106 3.777559921433947 2.6384062350219146 7.103084133423889 0 0 0
38 7 4 0.053 1.1782575044814432 1.7810733013067797 7.353688125546491 0 0 0
193 7 2 -0.106 6.408824294957365 2.521661388610343 6.986488007792853 0 0 0
194 7 4 0.053 6.434394386819779 1.4093901825076598 7.2027049394920315 0 0 0
842 7 4 0.053 3.6295279997249645 1.5769531497252383 7.27195820886259 0 0 0
847 7 4 0.053 3.917789811838934 3.144960021287548 8.112212082004255 0 0 0
1 1 2 -0.106 0.9199264258177362 2.871131413166582 1.2204331801630497 0 0 0
199 7 4 0.053 6.4810833597614135 3.0261242770588908 7.962491772446032 0 0 0
138 3 4 0.053 6.489735712042106 7.385308430793667 5.358835603771756 0 0 0
1039 3 1 0.106 7.580470474112607 7.654973046747022 3.5666412965815444 0 0 0
786 3 4 0.053 3.6381881900869586 7.83467808467941 5.6382727179475856 0 0 0
14 3 4 0.053 1.154235775451163 7.7641424882905845 5.732777123759003 0 0 0
757 1 2 -0.106 3.406462541348393 2.5975279644688802 1.2507783768074578 0 0 0
758 1 4 0.053 3.2170992907916927 1.5353376473921994 1.1223021406297442 0 0 0
198 7 5 -0.43 4.985599234476642 1.2283589209654395 4.162293039056131 0 0 0
787 3 1 0.106 2.401018337998507 8.093702717819713 3.8403710505489728 0 0 0
39 7 4 0.053 0.9917912840088379 3.548305359065936 7.848770485000208 0 0 0
3 1 4 0.053 0.7473961401270242 3.3751997051128053 2.2362362291307907 0 0 0
13 3 2 -0.106 1.1261260947647527 8.258033992800634 4.7106622246719985 0 0 0
1124 9 4 0.053 7.470187653480681 6.8083990399876315 8.906571360577725 0 0 0
224 9 4 0.053 4.714728974422843 8.248285539734951 8.225708979639387 0 0 0
140 3 4 0.053 4.871450101630512 7.733080447418346 2.8480724915438613 0 0 0
137 3 2 -0.106 6.323719519507888 7.852247265934063 4.380581290961954 0 0 0
761 1 3 0.271 2.395710978735494 4.815339659400846 0.7603162970881425 0 0 0
762 1 5 -0.43 2.610479086593574 5.960026346498405 0.8732291660986067 0 0 0
872 9 4 0.053 2.390042275873115 7.155542296654463 8.73340984143426 0 0 0
1013 1 3 0.271 7.1345078104111845 4.662882968489859 0.7448187472579433 0 0 0
1014 1 5 -0.43 7.061329444240518 5.818035230470578 0.9728436051048965 0 0 0
785 3 2 -0.106 3.753586179234972 8.194958816189507 4.573353335239245 0 0 0
1094 7 4 0.053 8.993281708648341 1.2084854965092926 6.691248493818627 0 0 0
1010 1 4 0.053 8.66285659153517 1.7045067242559082 1.324067987640452 0 0 0
1038 3 4 0.053 8.884466969603176 7.68501038728717 5.395649103831061 0 0 0
1099 7 4 0.053 8.866880711462949 2.5056874959806823 7.896978358791856 0 0 0
1093 7 2 -0.106 8.908249691390271 2.312972847666595 6.791678453418472 0 0 0
1015 1 4 0.053 8.651300950474061 3.1811322523626133 2.223748954611656 0 0 0
362 1 4 0.053 11.235832188260016 2.0733388823269587 1.593191300830484 0 0 0
367 1 4 0.053 11.197127500981308 3.7719601641698217 2.2313264763680443 0 0 0
393 3 3 0.271 10.26096551884575 6.327739625490244 3.679204001728055 0 0 0
394 3 5 -0.43 10.3379815770806 5.170121264984888 3.6485110341009865 0 0 0
447 7 1 0.106 10.199661942088094 2.908337885966298 6.210797582735567 0 0 0
448 7 4 0.053 9.998388440616138 3.9669045823057143 6.068744117210859 0 0 0
449 7 3 0.271 10.312985679709334 2.2470329126977813 4.96260052995051 0 0 0
631 3 3 0.271 15.077141387088268 6.396261103510704 3.790376276592538 0 0 0
632 3 5 -0.43 14.875605681434715 5.2392397877596935 3.6895092269315826 0 0 0
661 7 1 0.106 15.290041598076945 2.853787126670013 6.230735005529795 0 0 0
662 7 4 0.053 15.292842349233002 3.892878124783973 5.842155756963997 0 0 0
663 7 3 0.271 15.197468419063034 2.0186638717242724 5.042894342662842 0 0 0
1267 1 4 0.053 13.708066626182045 3.5296539749251035 2.544750870053329 0 0 0
1292 3 4 0.053 12.79525542893969 6.998805750253048 3.2175992451800264 0 0 0
1347 7 1 0.106 12.77986473376504 3.3811390471096123 6.472201380538756 0 0 0
1348 7 4 0.053 12.716184003380436 3.103600272497003 5.43323907454821 0 0 0
1349 7 3 0.271 12.853693083737939 4.797685811662147 6.629757344429903 0 0 0
1350 7 5 -0.43 12.887850235144777 5.928842592055994 6.749251812950538 0 0 0
391 3 1 0.106 10.149049767681579 7.720176820270228 3.74301120305555 0 0 0
629 3 1 0.106 15.261403837833257 7.81293827115805 3.834655439319663 0 0 0
445 7 2 -0.106 11.45494258019284 2.760880914574506 7.124401530330784 0 0 0
1345 7 2 -0.106 14.063797592287981 2.705649274893305 7.111898218207723 0 0 0
446 7 4 0.053 11.71626696117082 1.7102920130783237 7.432638334660472 0 0 0
1346 7 4 0.053 13.787542995917908 1.6234572074337246 7.39656945554072 0 0 0
1009 1 2 -0.106 8.586690627200976 2.7576861611647985 1.19291131079967 0 0 0
361 1 2 -0.106 11.198871379809074 3.1364869097450025 1.2735100856610764 0 0 0
451 7 4 0.053 11.109461608675364 3.2416760641096802 8.117272475084366 0 0 0
1351 7 4 0.053 14.203797309492872 3.166028749585407 8.137158000795615 0 0 0
1262 1 4 0.053 13.500232841096375 1.922698302958307 1.9129179866911732 0 0 0
1261 1 2 -0.106 13.711133818153458 3.006855733593475 1.5919172359979674 0 0 0
1290 3 4 0.053 13.841222159230576 7.748029487128018 5.51622525625235 0 0 0
390 3 4 0.053 11.48038789789489 7.563291637302839 5.438446258717771 0 0 0
450 7 5 -0.43 10.371721014235659 1.6221676091662034 3.960330120487241 0 0 0
664 7 5 -0.43 15.167513661715272 1.331190189337165 4.144531483389002 0 0 0
1291 3 1 0.106 12.769145989236394 8.014835066610011 3.6235720192819505 0 0 0
389 3 2 -0.106 11.461867209576777 8.111068985230713 4.464345826331366 0 0 0
392 3 4 0.053 10.145562545141722 8.06258269248703 2.70760047336394 0 0 0
678 9 4 0.053 15.10643489238295 7.989180749028321 8.312331961775737 0 0 0
1263 1 1 0.106 12.55238767600172 3.4833714401557208 0.6066177871936173 0 0 0
1037 3 2 -0.106 8.835554203062143 8.11423497022658 4.406241335188044 0 0 0
1289 3 2 -0.106 14.003066275258199 8.31348901522594 4.5535278481333865 0 0 0
630 3 4 0.053 15.278307997085106 8.125242374086046 2.782197913486715 0 0 0
613 1 1 0.106 15.135176532788032 3.0326063846649287 0.9590434780822207 0 0 0
476 9 4 0.053 10.354237051450074 7.937799044811426 8.35010174948221 0 0 0
614 1 4 0.053 15.303238295383498 4.032730285765712 0.6760124268631771 0 0 0
42 7 4 0.053 16.476767400046263 3.3232871566070585 7.8501799330347675 0 0 0
6 1 4 0.053 16.23015466531502 3.2737812387366345 2.736670862651025 0 0 0
5 1 4 0.053 16.386968754014323 1.6144870819127526 1.9750489909424218 0 0 0
116 1 2 -0.106 21.45484641970298 2.530033001149212 1.4351871398354688 0 0 0
117 1 4 0.053 21.616229342957304 1.3857788439501388 1.4296251372082258 0 0 0
122 1 4 0.053 21.362461273980067 2.949625400126322 2.4656212012732874 0 0 0
148 3 3 0.271 20.32361388266621 6.136101921980908 3.1975267600614985 0 0 0
149 3 5 -0.43 20.22336423564544 5.013505098844972 3.0461290395406815 0 0 0
202 7 1 0.106 20.52074119100665 3.051528573852242 6.186506575303707 0 0 0
203 7 4 0.053 20.61522722738495 4.064839812699239 5.748311353092149 0 0 0
204 7 3 0.271 20.393446947942365 2.221519103083215 5.048193601646556 0 0 0
765 1 4 0.053 18.7909586629033 1.38179219401477 1.6963661474102965 0 0 0
770 1 4 0.053 19.063250908816435 2.847870746272732 2.500813119498284 0 0 0
795 3 4 0.053 17.779825471808827 6.76954185975543 3.2381923341018948 0 0 0
850 7 1 0.106 17.813002053558293 3.227548886371691 6.204876644881925 0 0 0
851 7 4 0.053 17.75351036235091 2.677656189081607 5.317067842184739 0 0 0
852 7 3 0.271 17.761320561450717 4.609791444859593 5.963806598543813 0 0 0
853 7 5 -0.43 17.73718266353587 5.74722497957481 5.786035898486791 0 0 0
1047 3 4 0.053 23.011576977580987 6.499106415320546 2.923477669548648 0 0 0
1102 7 1 0.106 23.144905294799393 3.1747666444785834 6.237029564918432 0 0 0
1103 7 4 0.053 23.04640998844023 2.61691751272826 5.306360620007346 0 0 0
1104 7 3 0.271 23.21615337818576 4.53910038573934 5.915186320242567 0 0 0
1105 7 5 -0.43 23.33794442955137 5.640406494409977 5.638565900504355 0 0 0
200 7 2 -0.106 21.87313647079609 2.826413527164865 7.034585017296259 0 0 0
848 7 2 -0.106 19.19359858761328 2.935049559650111 6.999833845950477 0 0 0
201 7 4 0.053 21.96689983844378 1.776413335394543 7.26383494679993 0 0 0
146 3 1 0.106 20.457645311551936 7.555549918483354 3.491623436080228 0 0 0
40 7 2 -0.106 16.534051527890306 2.700284579292238 7.032786308632962 0 0 0
41 7 4 0.053 16.825617164528758 1.7158654556338384 7.34867554655972 0 0 0
849 7 4 0.053 19.22925912313452 1.8493688034552949 7.3157728121149574 0 0 0
206 7 4 0.053 21.954304852252278 3.3496274659768344 7.964041105463296 0 0 0
764 1 2 -0.106 18.86881858878168 2.468240239940628 1.5381172790594984 0 0 0
854 7 4 0.053 19.179049390392834 3.3992453581267528 7.99171657346322 0 0 0
4 1 2 -0.106 16.337937424802426 2.711577436425949 1.7656806821956228 0 0 0
1046 3 1 0.106 23.038307868595084 7.628738029285585 3.2638669766673516 0 0 0
794 3 1 0.106 17.84495513789767 7.849486944123765 3.5119370675430033 0 0 0
205 7 5 -0.43 20.24155588246557 1.6498007729192725 4.08121697542467 0 0 0
145 3 4 0.053 21.84798096073532 7.296895646663822 5.123614822418973 0 0 0
793 3 4 0.053 19.14653741332163 7.629702975928488 5.1983568871794334 0 0 0
1131 9 4 0.053 22.91489721077339 7.23166665584937 8.361904265146967 0 0 0
231 9 4 0.053 20.108677506743 7.929302491924618 7.733027147251743 0 0 0
144 3 2 -0.106 21.793365463022198 7.925294550362806 4.193511430194565 0 0 0
147 3 4 0.053 20.492263534647897 8.14898464280547 2.5285892559832908 0 0 0
1018 1 1 0.106 22.70822348404291 3.1486998432668716 0.6070732582240771 0 0 0
879 9 4 0.053 17.54932956361756 6.998947059192321 8.731495217932249 0 0 0
17 3 4 0.053 16.850097612578722 7.760744800849831 5.39299025258252 0 0 0
792 3 2 -0.106 19.1253860429253 8.155067527579565 4.234970292778233 0 0 0
16 3 2 -0.106 16.65234772128887 8.235643438502962 4.448846742667072 0 0 0
1130 9 1 0.106 22.8111364548028 8.239679798794008 8.74758814088815 0 0 0
766 1 1 0.106 17.6118676951654 3.1411310759173228 1.0426956310042055 0 0 0
768 1 3 0.271 17.605807073342817 4.594436133478146 1.0618760830809373 0 0 0
769 1 5 -0.43 17.65000984867136 5.76128288701217 1.0249777227074353 0 0 0
118 1 1 0.106 20.156003165914527 2.691549699503075 0.6560873744304334 0 0 0
230 9 1 0.106 20.22623833192268 7.814318676464056 8.815532100022965 0 0 0
1017 1 4 0.053 24.231069951450152 1.7357179910805303 1.5830658021512685 0 0 0
1016 1 2 -0.106 24.114431817925656 2.8015105934725417 1.251727719256618 0 0 0
1022 1 4 0.053 24.236622134162417 3.387761449929665 2.2294233088973217 0 0 0
1101 7 4 0.053 24.259922007494332 1.5117051447759722 7.053374042591949 0 0 0
1045 3 4 0.053 24.242879399426535 7.805404814046105 5.0402361226753225 0 0 0
1106 7 4 0.053 24.554864690840255 2.994261839373486 7.911336705775098 0 0 0
368 1 2 -0.106 26.547398702709323 3.0467783766215417 1.3378541258248846 0 0 0
369 1 4 0.053 26.63486780986755 1.9225979142881466 1.4800310483061005 0 0 0
374 1 4 0.053 26.28863645275886 3.4360804587777913 2.3261391664869353 0 0 0
400 3 3 0.271 25.959243342037176 6.277688322775454 3.362525463251941 0 0 0
401 3 5 -0.43 26.16589200917832 5.155660278905785 3.430439604188389 0 0 0
454 7 1 0.106 25.621471105757692 3.02581593478913 6.065831785757791 0 0 0
455 7 4 0.053 25.436496424940387 4.064863511257123 5.730202256198899 0 0 0
456 7 3 0.271 25.678040345324597 2.1910047573313305 4.898307881047618 0 0 0
633 3 1 0.106 30.71861559470822 7.861316157735633 3.904884280478002 0 0 0
635 3 3 0.271 30.546861259431978 6.463864536583024 3.7875426312814895 0 0 0
636 3 5 -0.43 30.384287045665843 5.317339960113684 3.7061188722725804 0 0 0
665 7 1 0.106 30.82087446609966 2.9073031541114376 6.1061588730185905 0 0 0
666 7 4 0.053 30.84812973719945 3.883133282401556 5.555282236391465 0 0 0
667 7 3 0.271 30.83561561234263 1.905370170684809 5.098310065451393 0 0 0
1268 1 2 -0.106 29.1807588677256 2.9131543337549486 1.3177334699089929 0 0 0
1269 1 4 0.053 29.154810475404297 1.8254897422461176 1.519695128100293 0 0 0
1274 1 4 0.053 29.440425534821188 3.28143819519284 2.35289202620087 0 0 0
1299 3 4 0.053 28.198197140643785 7.312955146607409 3.242293625090052 0 0 0
1354 7 1 0.106 28.200663264721307 3.2877768202281206 6.091119092490841 0 0 0
1355 7 4 0.053 28.056462108521444 2.9494229384559554 5.055100574485648 0 0 0
1356 7 3 0.271 28.340165872757602 4.687582599042498 6.20621856995712 0 0 0
1357 7 5 -0.43 28.463442167011884 5.8275937617020945 6.297276069530672 0 0 0
452 7 2 -0.106 26.912349477266794 2.8777104118466346 6.853975594175763 0 0 0
1100 7 2 -0.106 24.461705402920508 2.612322146833802 6.904033249937909 0 0 0
1352 7 2 -0.106 29.467334917130586 2.6106526572008937 6.7907409406257475 0 0 0
1298 3 1 0.106 28.228749732620322 8.308686188215116 3.598990514026836 0 0 0
458 7 4 0.053 26.84909290510327 3.4935400457700014 7.843623081942305 0 0 0
1358 7 4 0.053 29.51039962179145 2.912227790431716 7.904403549112711 0 0 0
398 3 1 0.106 25.704477069393775 7.662106325089207 3.346355187828874 0 0 0
457 7 5 -0.43 25.6359593656234 1.5042207237557683 3.971670815620686 0 0 0
397 3 4 0.053 26.766534147057953 8.084324306396741 5.143919653530648 0 0 0
1353 7 4 0.053 29.24080760935402 1.4773088393410556 6.879806294124149 0 0 0
453 7 4 0.053 27.0363151492613 1.84892653562192 7.22661673297236 0 0 0
668 7 5 -0.43 30.846561265881093 1.1118878249722202 4.2527850142892785 0 0 0
1297 3 4 0.053 29.18451880342831 7.969490375464349 5.545686077247386 0 0 0
634 3 4 0.053 30.77004907905834 8.28276647626133 2.893662108400245 0 0 0
396 3 2 -0.106 26.761729179262943 8.433759459726028 4.127658779190497 0 0 0
399 3 4 0.053 25.793055693698633 7.955057857777059 2.317623817171253 0 0 0
483 9 4 0.053 25.305780670210154 8.324509774670268 8.068070700580126 0 0 0
682 9 4 0.053 30.34315785591319 8.444847272611485 8.06735198696574 0 0 0
1044 3 2 -0.106 24.321769982025863 8.06385534592835 3.9636894650103693 0 0 0
1296 3 2 -0.106 29.434435654913294 8.424215570453883 4.5660889442370785 0 0 0
1383 9 4 0.053 27.777135062596734 7.2061103393540655 8.804414958160654 0 0 0
684 9 5 -0.43 30.320599570934455 5.409483674401276 8.810486759799817 0 0 0
683 9 3 0.271 30.43270996889511 6.581397257794182 8.96760399945083 0 0 0
1270 1 1 0.106 27.88938026012864 3.551659240930109 0.76263817219366 0 0 0
1272 1 3 0.271 28.03633071488867 4.909281206058464 1.0550106570411357 0 0 0
1273 1 5 -0.43 28.186090128546716 6.017974671670488 1.3436115933338444 0 0 0
789 3 3 0.271 2.3212858970477215 8.951828380580306 2.70775750649633 0 0 0
1125 9 3 0.271 7.471395315103864 8.578106431351706 7.831993623076887 0 0 0
873 9 3 0.271 2.266034071207879 9.04448665010267 7.849820829385334 0 0 0
1041 3 3 0.271 7.431323318691967 8.529090487552752 2.394465188461039 0 0 0
25 5 2 -0.106 1.2076621132823315 12.642854255196147 1.479866268199819 0 0 0
26 5 4 0.053 1.3877068364151146 11.63285495474268 1.886570696228923 0 0 0
143 3 4 0.053 6.148626807539291 8.995301075836412 4.3807621631987494 0 0 0
166 5 4 0.053 6.594083440647106 11.634011987851084 1.6140177540582163 0 0 0
171 5 4 0.053 6.390075071795166 13.209945648711779 2.43070671231623 0 0 0
251 11 1 0.106 5.017837136062972 13.303512583540458 6.433671791131356 0 0 0
252 11 4 0.053 4.93594390477979 14.35807764093446 6.281494123164697 0 0 0
253 11 3 0.271 5.101410607267517 12.654440448530943 5.188765476937252 0 0 0
254 11 5 -0.43 5.125315276092273 12.112533762541064 4.1777813714479395 0 0 0
791 3 4 0.053 4.129771412704285 9.242935733550908 4.698155439290481 0 0 0
813 5 2 -0.106 3.8404250704365817 12.638177419329509 1.4469495886542132 0 0 0
814 5 4 0.053 3.760022076339352 11.559576677284037 1.7013263132420522 0 0 0
819 5 4 0.053 3.848279475837259 13.139577742133396 2.411150514013777 0 0 0
874 9 5 -0.43 2.358862221558346 9.754216971087272 6.92589068035395 0 0 0
899 11 1 0.106 2.366100946162316 13.310100239582228 6.4199356005582615 0 0 0
900 11 4 0.053 2.388507906518055 12.958374407564255 5.338678423149274 0 0 0
901 11 3 0.271 2.341412191829726 14.673422324592472 6.399463205750319 0 0 0
1126 9 5 -0.43 7.449319541913111 9.090822665057456 6.815479860426992 0 0 0
1151 11 1 0.106 7.6521954478022245 13.242316045211876 6.556269516703874 0 0 0
1152 11 4 0.053 7.595315933956889 12.868330775068625 5.525522793441957 0 0 0
1153 11 3 0.271 7.784922772903922 14.642180860956765 6.546366579605901 0 0 0
61 11 2 -0.106 1.1238364866456894 12.772516833725719 7.26703410738254 0 0 0
249 11 2 -0.106 6.301497952960871 12.88945330002097 7.215239045787774 0 0 0
250 11 4 0.053 6.256180940086686 11.799592975822794 7.164742834624627 0 0 0
897 11 2 -0.106 3.698108183529331 12.780395468570745 7.007442476803261 0 0 0
898 11 4 0.053 3.703793879542185 11.636716515616778 7.003703307565598 0 0 0
903 11 4 0.053 3.6159152482205044 13.120954285139803 8.084676331962703 0 0 0
62 11 4 0.053 1.2106917218582107 11.729838420062448 7.463517612288065 0 0 0
255 11 4 0.053 6.36715621894673 13.215450698801238 8.298986941293098 0 0 0
128 2 5 -0.43 5.083358089114143 14.867127715576737 3.5200927122980414 0 0 0
165 5 2 -0.106 6.4973592641423865 12.717224217620267 1.4162877097036255 0 0 0
1042 3 5 -0.43 7.380063574184423 9.207383409557677 1.465942361576449 0 0 0
15 3 4 0.053 1.0826995927846164 9.308652875632877 4.995127220650645 0 0 0
790 3 5 -0.43 2.3259106305041675 9.65637314869873 1.819576435874513 0 0 0
1154 11 5 -0.43 7.8982561193150005 15.817573148156617 6.53113784439587 0 0 0
902 11 5 -0.43 2.3443498024146825 15.853496430408505 6.319986719462527 0 0 0
817 5 3 0.271 2.5031051886654914 14.529402660329586 0.7478281153907532 0 0 0
815 5 1 0.106 2.5018125581710793 13.138047187226539 0.7746703545464796 0 0 0
818 5 5 -0.43 2.5417469005612396 15.687921557944094 0.740106621700015 0 0 0
27 5 4 0.053 1.2106166547066552 13.266866488529836 2.436657615903953 0 0 0
1067 5 1 0.106 7.825528328068392 13.24584699331373 0.8566547833573486 0 0 0
1069 5 3 0.271 7.711955905766897 14.590453578141277 0.9935370891850581 0 0 0
1070 5 5 -0.43 7.626132651237691 15.741241799443003 1.069080041969963 0 0 0
63 11 4 0.053 1.2277685810669876 13.356993767773861 8.173526403554812 0 0 0
127 2 3 0.271 5.155350804768071 16.01116008001633 3.5779768515361834 0 0 0
212 8 5 -0.43 5.0983707170125205 15.15659646572126 8.943444503479224 0 0 0
167 5 1 0.106 5.1396271920509085 12.93825540083075 0.660635400900913 0 0 0
1293 3 3 0.271 12.643733410634127 8.82388821248392 2.4213410484107767 0 0 0
1377 9 3 0.271 12.48177153893695 8.688881768940252 8.131810212562188 0 0 0
1150 11 4 0.053 8.639337908060012 11.581928392929106 7.6266460359388475 0 0 0
1066 5 4 0.053 8.706865986872586 11.655891720028631 1.949462750955372 0 0 0
1155 11 4 0.053 8.935537704339186 13.076155361428148 8.389452018796781 0 0 0
395 3 4 0.053 11.338389074273568 9.103136333238213 4.803915132333932 0 0 0
418 5 4 0.053 11.679529173515109 11.44951745514322 2.0225594803389373 0 0 0
423 5 4 0.053 11.58620496519559 13.040430625060937 2.719407575598671 0 0 0
503 11 1 0.106 10.23703858804242 12.75689625649791 6.632181338856684 0 0 0
504 11 4 0.053 10.219007993538078 13.806603703951236 6.294313280134468 0 0 0
505 11 3 0.271 10.35246171097427 11.961511280246592 5.447366571994347 0 0 0
506 11 5 -0.43 10.36396231889997 11.334959507064914 4.478197209804697 0 0 0
693 11 1 0.106 15.331103785166942 13.049948206562222 6.799257444001692 0 0 0
694 11 4 0.053 15.41149697165451 14.063098492532728 6.523612303172621 0 0 0
695 11 3 0.271 15.292114172707356 12.260950534107703 5.631286985966672 0 0 0
696 11 5 -0.43 15.248828731785673 11.593208092385542 4.6994440928714285 0 0 0
1043 3 4 0.053 8.802542511130419 9.22871715827633 4.475738636159447 0 0 0
1071 5 4 0.053 8.973776407175055 13.318444368283311 2.7235811613784104 0 0 0
1295 3 4 0.053 14.199781062696458 9.383612903065277 4.7394468928487985 0 0 0
1318 5 4 0.053 14.03754379534672 11.44019499638354 2.2177180317918 0 0 0
1323 5 4 0.053 14.008175668101792 13.109283311349463 2.8535976219371046 0 0 0
1378 9 5 -0.43 12.482208545784495 9.342635934963953 7.1682612864544195 0 0 0
1403 11 1 0.106 12.70929334336798 13.192140414758097 6.911346901681846 0 0 0
1404 11 4 0.053 12.744128006196531 12.855053314225446 5.867113140793213 0 0 0
1405 11 3 0.271 12.599807570251127 14.618956440410148 6.881653246684598 0 0 0
501 11 2 -0.106 11.447835487913398 12.5638248980271 7.559706310938728 0 0 0
1149 11 2 -0.106 8.859858191790334 12.628929001009869 7.352161816204896 0 0 0
1401 11 2 -0.106 14.044714738409269 12.743404187696841 7.57652281715762 0 0 0
380 2 5 -0.43 10.359285041632926 15.415313213422944 3.1892706746413046 0 0 0
502 11 4 0.053 11.716847631614472 11.490269129875651 7.883461667082689 0 0 0
507 11 4 0.053 11.165205495188037 13.002405121681857 8.535653823837485 0 0 0
1402 11 4 0.053 14.053057412440774 11.686062641402668 7.657565558703105 0 0 0
1407 11 4 0.053 14.133003505982588 13.179644566668703 8.621613432367681 0 0 0
624 2 5 -0.43 15.297704863794408 15.353895680338994 3.727431222563575 0 0 0
417 5 2 -0.106 11.58218782664141 12.497517958359671 1.7549747461866414 0 0 0
1065 5 2 -0.106 8.9770179060308 12.718928404992749 1.7268452039020206 0 0 0
1317 5 2 -0.106 14.12307395588418 12.509763468269394 1.9024052549804784 0 0 0
1294 3 5 -0.43 12.62652418819321 9.49645606682932 1.4592486773053928 0 0 0
1406 11 5 -0.43 12.538546017721048 15.78047318526658 6.794447721922303 0 0 0
1319 5 1 0.106 12.914186381284036 12.855187051774788 1.0191932808822401 0 0 0
645 5 1 0.106 15.507265607027456 12.81430625250602 1.186181378414679 0 0 0
1321 5 3 0.271 12.900886507892348 14.271396542200886 0.794992502305435 0 0 0
419 5 1 0.106 10.361641366351085 12.874012237614231 0.996697800289265 0 0 0
1322 5 5 -0.43 12.864427737624977 15.386572634781839 0.6448316944411105 0 0 0
464 8 5 -0.43 10.188207920821112 15.388577878674882 8.629885760426097 0 0 0
646 5 4 0.053 15.44916771059732 13.887703322974454 0.9598524266222859 0 0 0
796 3 3 0.271 17.869540090992807 8.65773121434998 2.344467180386592 0 0 0
1048 3 3 0.271 22.796351090650575 8.520888474736704 2.1535087213815496 0 0 0
66 11 4 0.053 16.487190944184682 13.117489233879587 8.614853284622194 0 0 0
1132 9 3 0.271 23.023539053342148 9.096064090432057 7.558074392540165 0 0 0
18 3 4 0.053 16.682516329276666 9.35335547785937 4.638788379989054 0 0 0
880 9 3 0.271 17.494644239170206 8.816852180475108 7.780079524230694 0 0 0
30 5 4 0.053 16.76874630004651 12.93294417224634 2.9789492657784415 0 0 0
29 5 4 0.053 16.678440087632858 11.335214126436489 2.1357003273529633 0 0 0
65 11 4 0.053 16.682748211865913 11.688912071191263 7.694415201096733 0 0 0
28 5 2 -0.106 16.71810167632848 12.463389299894905 2.0180730090958154 0 0 0
150 3 4 0.053 21.7829268731139 9.007612970729776 4.53745556948592 0 0 0
172 5 2 -0.106 21.936917694668573 12.524604331081669 2.069450089804409 0 0 0
173 5 4 0.053 22.00757990126572 11.443153013399016 2.3589163841016836 0 0 0
178 5 4 0.053 21.86250973093179 13.1935529931865 2.920472828153975 0 0 0
259 11 4 0.053 20.346477468773074 13.89171382788015 6.066263447849236 0 0 0
260 11 3 0.271 20.476523834160673 11.975997051469824 5.588985345335626 0 0 0
261 11 5 -0.43 20.553559618440566 11.178433746634608 4.780802341969842 0 0 0
798 3 4 0.053 19.222343853157177 9.152366475352768 4.606376761837436 0 0 0
820 5 2 -0.106 19.283889255678822 12.439519586875653 1.9634017169086977 0 0 0
821 5 4 0.053 19.109535677291504 11.338080475257014 2.1822110501445495 0 0 0
826 5 4 0.053 19.29561521296698 12.900229295585806 3.0116236624424984 0 0 0
881 9 5 -0.43 17.392766935519553 9.373869653739414 6.807882312398708 0 0 0
906 11 1 0.106 17.82202852303331 13.327083839775929 6.863037854577644 0 0 0
907 11 4 0.053 17.677151307357413 13.142916709143584 5.771095391450143 0 0 0
908 11 3 0.271 17.90262126017582 14.761331159223742 7.030433606712964 0 0 0
1133 9 5 -0.43 23.125462035070846 9.803463502483172 6.648396217848174 0 0 0
1158 11 1 0.106 22.96434944625218 13.467825801447768 6.70099642321538 0 0 0
1159 11 4 0.053 22.87006125666538 13.269442841689433 5.596322349880663 0 0 0
1160 11 3 0.271 22.98203861585688 14.89346171967594 6.704707897926163 0 0 0
258 11 1 0.106 20.413827539801737 12.98647114650022 6.658444035128792 0 0 0
64 11 2 -0.106 16.581172961852275 12.756481889554372 7.598421273918175 0 0 0
256 11 2 -0.106 21.75356495081229 12.984657194846838 7.452749419828964 0 0 0
904 11 2 -0.106 19.143168841663268 12.921046394447185 7.501290038194477 0 0 0
135 2 5 -0.43 20.59998548724714 14.808720164181253 3.9494980785288463 0 0 0
257 11 4 0.053 22.002952978856683 11.881734300051214 7.614552425472787 0 0 0
262 11 4 0.053 21.648988940044738 13.407929442863209 8.4807969466427 0 0 0
905 11 4 0.053 19.130573422455555 11.876895608117193 7.843439681937656 0 0 0
910 11 4 0.053 19.32588583939598 13.540493216910123 8.442816713744055 0 0 0
797 3 5 -0.43 17.90109247163882 9.343414839570547 1.4084244817582663 0 0 0
1049 3 5 -0.43 22.673917219128754 9.22828983950042 1.2192777390456089 0 0 0
1161 11 5 -0.43 23.024975967833868 16.03355638763398 6.672163743015777 0 0 0
909 11 5 -0.43 18.071895891856762 15.90459834887998 7.15089518695569 0 0 0
822 5 1 0.106 18.00460941808216 12.91899740377447 1.258738677885448 0 0 0