LAMMPS data file via write_data, version 27 Jun 2024, timestep = 1000000, units = real

3024 atoms
5 atom types
3024 bonds
5 bond types
5616 angles
8 angle types
9072 dihedrals
8 dihedral types
3456 impropers
5 improper types

0.3745760789580377 31.466535255042405 xlo xhi
0.2754095372065368 31.18450763479385 ylo yhi
2.0629920865783653 32.61765422241441 zlo zhi
0.11868299998336533 0 0.69343896619964 xy xz yz

Atom Type Labels

1 c1
2 c2
3 ct
4 hpan
5 nt

Bond Type Labels

1 c1-c2
2 c1-ct
3 c1-hpan
4 c2-hpan
5 ct-nt

Angle Type Labels

1 c1-c2-c1
2 c1-c2-hpan
3 c1-ct-nt
4 c2-c1-c2
5 c2-c1-ct
6 c2-c1-hpan
7 ct-c1-hpan
8 hpan-c2-hpan

Dihedral Type Labels

1 hpan-c2-c1-ct
2 c2-c1-c2-hpan
3 hpan-c1-c2-hpan
4 hpan-c1-ct-nt
5 c2-c1-ct-nt
6 c1-c2-c1-c2
7 c1-c2-c1-ct
8 c1-c2-c1-hpan

Improper Type Labels

1 c1-c2-c1-hpan-nb!=3
2 c1-c2-hpan-hpan-nb!=3
3 c2-c1-c2-ct-nb!=3
4 c2-c1-c2-hpan-nb!=3
5 c2-c1-ct-hpan-nb!=3

Masses

1 12.01115
2 12.01115
3 12.01115
4 1.00797
5 14.0067

Pair Coeffs # lj/class2/coul/long

1 0.054 4.01
2 0.054 4.01
3 0.064 4.01
4 0.02 2.3
5 0.065 3.57

Bond Coeffs # class2

1 1.53 299.67 -501.77 679.81
2 1.42 311.149 0 0
3 1.101 345 -691.89 844.6
4 1.101 345 -691.89 844.6
5 1.158 880 0 0

Angle Coeffs # class2

1 112.67 39.516 -7.443 -9.5583
2 110.77 41.453 -10.604 5.129
3 180 200 0 0
4 112.67 39.516 -7.443 -9.5583
5 109.5 46 0 0
6 110.77 41.453 -10.604 5.129
7 109.5 42 0 0
8 107.66 39.641 -12.921 -2.4318

BondBond Coeffs

1 0 1.53 1.53
2 3.3872 1.53 1.101
3 0 1.42 1.158
4 0 1.53 1.53
5 0 1.53 1.42
6 3.3872 1.53 1.101
7 0 1.42 1.101
8 5.3316 1.101 1.101

BondAngle Coeffs

1 8.016 8.016 1.53 1.53
2 20.754 11.421 1.53 1.101
3 0 0 1.42 1.158
4 8.016 8.016 1.53 1.53
5 0 0 1.53 1.42
6 20.754 11.421 1.53 1.101
7 0 0 1.42 1.101
8 18.103 18.103 1.101 1.101

Dihedral Coeffs # class2

1 0 0 0.0316 0 -0.1681 0
2 0 0 0.0316 0 -0.1681 0
3 -0.1432 0 0.0617 0 -0.1083 0
4 0 0 0 0 0 0
5 0 0 0 0 0 0
6 0 0 0.0514 0 -0.143 0
7 0 0 0.0514 0 -0.143 0
8 0 0 0.0316 0 -0.1681 0

AngleAngleTorsion Coeffs

1 0 110.77 109.5
2 -16.164 112.67 110.77
3 -12.564 110.77 110.77
4 0 109.5 180
5 0 109.5 180
6 -22.045 112.67 112.67
7 0 112.67 109.5
8 -16.164 112.67 110.77

EndBondTorsion Coeffs

1 0 0 0 0 0 0 1.101 1.42
2 0.2486 0.2422 -0.0925 0.0814 0.0591 0.2219 1.53 1.101
3 0.213 0.312 0.0777 0.213 0.312 0.0777 1.101 1.101
4 0 0 0 0 0 0 1.101 1.158
5 0 0 0 0 0 0 1.53 1.158
6 -0.0732 0 0 -0.0732 0 0 1.53 1.53
7 0 0 0 0 0 0 1.53 1.42
8 0.2486 0.2422 -0.0925 0.0814 0.0591 0.2219 1.53 1.101

MiddleBondTorsion Coeffs

1 0 0 0 1.53
2 -14.879 -3.6581 -0.3138 1.53
3 -14.261 -0.5322 -0.4864 1.53
4 0 0 0 1.42
5 0 0 0 1.42
6 -17.787 -7.1877 0 1.53
7 0 0 0 1.53
8 -14.879 -3.6581 -0.3138 1.53

BondBond13 Coeffs

1 0 1.101 1.42
2 0 1.53 1.101
3 0 1.101 1.101
4 0 1.101 1.158
5 0 1.53 1.158
6 0 1.53 1.53
7 0 1.53 1.42
8 0 1.53 1.101

AngleTorsion Coeffs

1 0 0 0 0 0 0 110.77 109.5
2 -0.2454 0 -0.1136 0.3113 0.4516 -0.1988 112.67 110.77
3 -0.8085 0.5569 -0.2466 -0.8085 0.5569 -0.2466 110.77 110.77
4 0 0 0 0 0 0 109.5 180
5 0 0 0 0 0 0 109.5 180
6 0.3886 -0.3139 0.1389 0.3886 -0.3139 0.1389 112.67 112.67
7 0 0 0 0 0 0 112.67 109.5
8 -0.2454 0 -0.1136 0.3113 0.4516 -0.1988 112.67 110.77

Improper Coeffs # class2

1 0 0
2 0 0
3 0 0
4 0 0
5 0 0

AngleAngle Coeffs

1 -1.3199 -1.3199 0.1184 112.67 110.77 110.77
2 0.2738 -0.4825 0.2738 110.77 110.77 107.66
3 0 0 0 112.67 109.5 109.5
4 -1.3199 -1.3199 0.1184 112.67 110.77 110.77
5 0 0 0 109.5 109.5 110.77

Atoms # full

1 1 2 -0.106 0.8567631993365099 2.4582921584289728 3.987316734925183 0 0 0
2 1 4 0.053 0.8750066447540024 1.5036017844353218 4.513670791857216 0 0 0
109 1 2 -0.106 6.071139873542013 2.2177967407119477 3.94645858444198 0 0 0
110 1 4 0.053 6.048702047392805 1.2125977686392129 4.338366685914105 0 0 0
111 1 1 0.106 4.783260871737302 2.428335360959147 3.1873677814729637 0 0 0
115 1 4 0.053 6.147327468203069 2.9687087128988816 4.7572783101360905 0 0 0
138 3 4 0.053 6.332530327420263 7.198534312762832 7.374692455620592 0 0 0
139 3 1 0.106 4.935804937565576 7.644609914342636 5.7866522246664545 0 0 0
141 3 3 0.271 4.946782651475696 6.401536952247687 5.141134922078388 0 0 0
142 3 5 -0.43 5.010682203707704 5.352505938334097 4.609593702686004 0 0 0
195 7 1 0.106 4.738992793446174 2.6345052841819148 8.313455672055166 0 0 0
196 7 4 0.053 4.80441343056368 3.539270773079641 7.7613343148987815 0 0 0
197 7 3 0.271 4.715994699485428 1.610798392582888 7.391199462411943 0 0 0
757 1 2 -0.106 3.444670666981828 2.3316754395950086 4.047589911089533 0 0 0
758 1 4 0.053 3.3084970390596027 1.3736983392562059 4.57376204735643 0 0 0
759 1 1 0.106 2.1599551051415506 2.5947985306368544 3.1677445224719234 0 0 0
763 1 4 0.053 3.4483666523370102 3.1899851207629117 4.728784862454221 0 0 0
786 3 4 0.053 3.589183435854511 7.098194247148433 7.4835018115874705 0 0 0
788 3 4 0.053 2.2723941419958313 6.7589172381876 5.338302782477404 0 0 0
843 7 1 0.106 2.1188164319037535 2.576444254775894 8.415175017371425 0 0 0
844 7 4 0.053 2.0588401965836516 1.6410594181447158 7.815977408109415 0 0 0
845 7 3 0.271 2.1501983523311106 3.743149101521205 7.65212154516773 0 0 0
846 7 5 -0.43 2.168771154191637 4.709898008137395 7.037145349115636 0 0 0
1011 1 1 0.106 7.399835989199815 2.3291850714943365 3.124952554832162 0 0 0
1040 3 4 0.053 7.516995534435783 6.839967710985413 5.354146044352696 0 0 0
1095 7 1 0.106 7.35837633758213 2.6821398502762834 8.412477099346596 0 0 0
1096 7 4 0.053 7.46728370528401 1.837357457914785 7.676980883721106 0 0 0
1097 7 3 0.271 7.415594199634379 3.8726278053683885 7.617550802136784 0 0 0
1098 7 5 -0.43 7.463950033477179 4.804531013495524 6.917581483124087 0 0 0
37 7 2 -0.106 0.8799152270111147 2.6680752549041262 9.252915222994549 0 0 0
841 7 2 -0.106 3.4583078895856527 2.5912551168245224 9.206362266586147 0 0 0
787 3 1 0.106 2.3243965334646495 7.7358738006284 5.854179594359401 0 0 0
3 1 4 0.053 0.777115570943212 3.1971996859473446 4.7997049928721385 0 0 0
14 3 4 0.053 1.0055160785003991 6.965897858355276 7.4056652122417 0 0 0
1039 3 1 0.106 7.520336145558722 7.772704873941603 5.746365674490883 0 0 0
785 3 2 -0.106 3.6395081424464593 7.830859373140494 6.653656920306048 0 0 0
13 3 2 -0.106 0.9867990242920626 7.754708536813494 6.667180430123262 0 0 0
137 3 2 -0.106 6.228691392608059 7.885520082329199 6.6222461995522375 0 0 0
193 7 2 -0.106 6.0477402271792995 2.63455673994581 9.159668949188251 0 0 0
1012 1 4 0.053 7.429422723178603 1.4220130417604708 2.4813348768249375 0 0 0
760 1 4 0.053 2.0234929286307297 1.7270297891327355 2.54027180966401 0 0 0
113 1 3 0.271 4.7054649391422005 1.475250193736233 2.2467397194551313 0 0 0
761 1 3 0.271 2.3163487875921307 3.7055511487237682 2.287429682128837 0 0 0
198 7 5 -0.43 4.644849065178394 0.7272075712829444 6.6124424482659165 0 0 0
112 1 4 0.053 4.78870631040523 3.4280613033953857 2.767983933932062 0 0 0
1013 1 3 0.271 7.461306449833332 3.4440288519400277 2.283205212194012 0 0 0
2466 33 4 0.053 3.4495886204901667 6.5481951773458515 2.2556376049690794 0 0 1
1818 33 4 0.053 6.375714816256382 6.332358270037019 2.1871353842191557 0 0 1
1598 33 4 0.053 0.7669707792079061 7.026015536954608 2.322269327228726 0 0 1
1823 33 4 0.053 5.842127020945408 8.001861146196553 2.3830963390788007 0 0 1
1038 3 4 0.053 8.866121629632955 7.214001629760192 7.337669528510917 0 0 0
361 1 2 -0.106 11.180948074193411 2.492473805406875 4.191450741018663 0 0 0
362 1 4 0.053 11.22292683921947 1.5665737559340231 4.801819506398222 0 0 0
363 1 1 0.106 10.002733137191377 2.349738731711068 3.22577814522068 0 0 0
367 1 4 0.053 11.017887543983484 3.388236859286965 4.964211667552849 0 0 0
390 3 4 0.053 11.539718108249001 7.12368871171673 7.288865447468576 0 0 0
391 3 1 0.106 10.186378295480903 7.63954983812115 5.640898412569431 0 0 0
393 3 3 0.271 10.20763317995686 6.447283604175785 4.976431263557316 0 0 0
394 3 5 -0.43 10.162100265762671 5.430211786946918 4.442970508247175 0 0 0
447 7 1 0.106 9.972610925638376 2.397176518693141 8.622197827516374 0 0 0
448 7 4 0.053 9.965689782116094 3.0956418883461856 7.802904447165052 0 0 0
449 7 3 0.271 9.97663257511777 1.074169022355942 8.04584660795912 0 0 0
613 1 1 0.106 15.252242148333886 2.4163016468917946 3.466021700908958 0 0 0
631 3 3 0.271 15.237717899375728 6.5032921762700235 4.993975743677808 0 0 0
632 3 5 -0.43 15.245601040991454 5.555546505353659 4.404045588905406 0 0 0
662 7 4 0.053 15.044081343445278 3.604954911549186 7.459794840974943 0 0 0
663 7 3 0.271 15.0086167314065 1.5338783340837616 7.63600859834643 0 0 0
1009 1 2 -0.106 8.639081368509338 2.400552274690056 4.014856483092162 0 0 0
1010 1 4 0.053 8.705268225716555 1.6688094210265259 4.814728175446463 0 0 0
1015 1 4 0.053 8.571142278111274 3.3570520190296818 4.528717341087251 0 0 0
1261 1 2 -0.106 13.899902487415618 2.590827440033623 4.349617646441886 0 0 0
1262 1 4 0.053 13.887961234871424 1.9183135687175892 5.201405183900764 0 0 0
1263 1 1 0.106 12.562795506064097 2.4682821800276904 3.4964096165993412 0 0 0
1267 1 4 0.053 13.92482014068383 3.595943089514553 4.787712800084667 0 0 0
1290 3 4 0.053 14.088475316225718 6.806903199108849 7.147660034563306 0 0 0
1292 3 4 0.053 12.82751120697028 7.0274425192748255 5.03506757649771 0 0 0
1347 7 1 0.106 12.465145472758326 3.004386557766999 8.473598609007713 0 0 0
1348 7 4 0.053 12.530611212367814 2.0455289725863084 7.866751274396862 0 0 0
1349 7 3 0.271 12.388410047091487 4.169781687743054 7.622471265772015 0 0 0
1350 7 5 -0.43 12.356968250198069 5.108374556073507 6.908400607536211 0 0 0
661 7 1 0.106 15.092958793088528 2.8055408546519063 8.261030389651715 0 0 0
629 3 1 0.106 15.321551155032243 7.782783554491218 5.745484426164385 0 0 0
1291 3 1 0.106 12.775370342163987 7.854389177898892 5.744102305048757 0 0 0
1289 3 2 -0.106 14.07651170956624 7.76034798055385 6.601243011716902 0 0 0
389 3 2 -0.106 11.431680718290188 7.880452406073638 6.509769921738236 0 0 0
1345 7 2 -0.106 13.832526138234265 2.9859539687746577 9.184098235214023 0 0 0
614 1 4 0.053 15.26363622872362 3.262460087725935 2.766415954444844 0 0 0
1037 3 2 -0.106 8.90565470196241 7.874842708761791 6.485622577448426 0 0 0
1264 1 4 0.053 12.591108497421569 1.490633375503188 3.057326362763088 0 0 0
478 9 5 -0.43 9.642233634725788 5.652762000895848 9.217201356545392 0 0 0
680 9 5 -0.43 15.056107115604163 5.8594076227650485 8.807787559779314 0 0 0
2718 33 4 0.053 8.86104242217642 6.4292523278850435 2.3389339791730923 0 0 1
615 1 3 0.271 15.10869631477608 1.1348785362447638 2.735572951491577 0 0 0
445 7 2 -0.106 11.240718637882896 2.873559680626093 9.458146869586564 0 0 0
1093 7 2 -0.106 8.579349918391971 2.5767579489234174 9.317270770136815 0 0 0
365 1 3 0.271 10.145913663402233 1.1311636568172636 2.683146693593949 0 0 0
364 1 4 0.053 10.135385220408425 3.1082433659611697 2.4354168801947673 0 0 0
664 7 5 -0.43 14.914361015736102 0.4287591903255654 7.158510284176154 0 0 0
1265 1 3 0.271 12.509082452506291 3.4422596484158476 2.44430980330501 0 0 0
679 9 3 0.271 15.088494806784434 6.8171092923382615 9.526217150766527 0 0 0
2070 33 4 0.053 11.441911351577323 6.387976406353816 2.0691135702548 0 0 1
2723 33 4 0.053 8.965327994793753 7.976810034257791 2.4307591980364593 0 0 1
2975 33 4 0.053 13.931754510169165 8.112342585508252 2.0787257626022506 0 0 1
40 7 2 -0.106 16.38810308627434 2.7570133352874815 9.036490278237768 0 0 0
6 1 4 0.053 16.58088967777943 3.454833035386817 4.860256514907627 0 0 0
4 1 2 -0.106 16.6124404773308 2.5653491552973864 4.161779709365064 0 0 0
5 1 4 0.053 16.752887631380496 1.752775286461772 4.922622045978789 0 0 0
17 3 4 0.053 16.853135961051663 6.93752790406385 7.076706862782283 0 0 0
116 1 2 -0.106 21.681022073314068 2.623452591135233 3.5988077770649225 0 0 0
117 1 4 0.053 21.635704958429457 1.839906433302146 4.409472276236972 0 0 0
118 1 1 0.106 20.36584614553957 2.682936263164642 2.8975882478042436 0 0 0
122 1 4 0.053 21.866179125667358 3.5825418556963893 4.132075533058252 0 0 0
145 3 4 0.053 21.656615042058725 6.789053042977686 6.895886764593403 0 0 0
148 3 3 0.271 20.588106822114966 6.41732181567292 4.645569833754237 0 0 0
149 3 5 -0.43 20.595599543623656 5.370953420237134 4.146209003593601 0 0 0
202 7 1 0.106 20.266216729369617 2.618138526671636 8.165803297705734 0 0 0
203 7 4 0.053 20.393737900593536 3.4812071130542863 7.444102755337671 0 0 0
204 7 3 0.271 20.204807080975257 1.3949874914066276 7.440929952320799 0 0 0
764 1 2 -0.106 19.14122949587567 2.542585043744916 3.922651580292407 0 0 0
765 1 4 0.053 19.43090736753817 1.6678449997839229 4.578714691860759 0 0 0
770 1 4 0.053 19.39116029670504 3.3545935117918186 4.682877749403252 0 0 0
793 3 4 0.053 19.22361206779503 7.094683071114083 6.98482336849953 0 0 0
795 3 4 0.053 17.740078018400382 6.961095838295813 4.996507046766744 0 0 0
850 7 1 0.106 17.668165332187137 2.7047460868687545 8.135292141446662 0 0 0
851 7 4 0.053 17.644281582752058 1.9082417516717278 7.37397212443921 0 0 0
852 7 3 0.271 17.870741199879824 3.925126563388839 7.328872693576552 0 0 0
853 7 5 -0.43 18.02845140752965 4.8490412014062905 6.639468703442472 0 0 0
1018 1 1 0.106 22.946973982545146 2.4197892250443713 2.728731378742247 0 0 0
1047 3 4 0.053 23.055321736446203 6.895999234758057 4.750053022230036 0 0 0
1102 7 1 0.106 22.886621004379244 2.419558001836996 8.240069983466007 0 0 0
1103 7 4 0.053 22.820564306755735 1.4183025083556913 7.737818995041034 0 0 0
1104 7 3 0.271 22.915079065383722 3.4728330283326176 7.2013445103122224 0 0 0
1105 7 5 -0.43 22.932497222843402 4.2955799466588 6.431128104014134 0 0 0
766 1 1 0.106 17.752141964968935 2.653647407119161 3.269686851744339 0 0 0
200 7 2 -0.106 21.597543773577236 2.6108450513500987 9.088642595994937 0 0 0
848 7 2 -0.106 18.96558343842552 2.5697010987101665 9.005712444068617 0 0 0
1046 3 1 0.106 23.012004854616677 7.79132675559672 5.434078156351912 0 0 0
16 3 2 -0.106 16.677813810476408 7.87823072446234 6.4822049480453305 0 0 0
146 3 1 0.106 20.49310671194793 7.724079747107427 5.282370491705677 0 0 0
792 3 2 -0.106 19.203326713917647 7.876416651843083 6.203305799652231 0 0 0
144 3 2 -0.106 21.719673633660022 7.7119451324283705 6.220583593047591 0 0 0
794 3 1 0.106 17.85787218055401 7.920715760622154 5.506846513041484 0 0 0
119 1 4 0.053 20.289262489714574 3.663240300524913 2.396875334833963 0 0 0
1019 1 4 0.053 22.831420223800286 1.4385114663777858 2.2516924648032406 0 0 0
767 1 4 0.053 17.718670766677597 1.8334829535327337 2.4983468394916213 0 0 0
233 9 5 -0.43 20.492547358623376 5.719362775299714 9.07700179196388 0 0 0
768 1 3 0.271 17.694382829713035 3.8982709598813408 2.5142272355243613 0 0 0
41 7 4 0.053 16.324764622493568 1.8729001799918168 9.627010310540847 0 0 0
849 7 4 0.053 19.07002543458428 1.5989830833049745 9.577239395090071 0 0 0
206 7 4 0.053 21.757528245214367 3.5794390904841307 9.538628216625181 0 0 0
2473 33 4 0.053 19.057844542171814 7.069259906833595 2.237483369849601 0 0 1
1825 33 4 0.053 21.459189658010395 7.013712894869538 2.240726443572619 0 0 1
1601 33 4 0.053 16.627272525287466 6.90498979954698 2.2796947867011754 0 0 1
1022 1 4 0.053 24.28081281750741 3.5471348308443424 3.968863131526673 0 0 0
1017 1 4 0.053 24.25658782872238 1.7222844383374487 4.355333592308311 0 0 0
1045 3 4 0.053 24.34837985516343 6.837675544035953 6.833973126989527 0 0 0
368 1 2 -0.106 26.707935767464505 2.4167541903229 3.820401503342082 0 0 0
369 1 4 0.053 26.56227135839643 1.4569284209196038 4.362923168021988 0 0 0
370 1 1 0.106 25.508165183928533 2.4055186689242443 2.778175451362184 0 0 0
374 1 4 0.053 26.58111130089256 3.2751402148707442 4.597919345671695 0 0 0
397 3 4 0.053 26.94379180761691 6.876000157581239 6.985221665037831 0 0 0
400 3 3 0.271 25.761910400317397 6.509764475098631 4.719287677328721 0 0 0
401 3 5 -0.43 25.882960203000728 5.5318743510490815 4.094387253395158 0 0 0
454 7 1 0.106 25.499387851617072 2.5833225100287676 8.29265057620309 0 0 0
455 7 4 0.053 25.49381044250653 3.4693550399643858 7.680536569027465 0 0 0
456 7 3 0.271 25.429883324842272 1.5078596572816192 7.374418406688897 0 0 0
617 1 1 0.106 30.65747952974587 2.5163228079864104 3.1227636026488 0 0 0
633 3 1 0.106 30.78669333561067 7.6514517885321345 5.8549689475866735 0 0 0
635 3 3 0.271 30.715810358550577 6.499294453374574 4.969247282453127 0 0 0
636 3 5 -0.43 30.717506093352547 5.602691820857915 4.206456381052888 0 0 0
665 7 1 0.106 30.697246026511877 2.4803461104715034 8.370856206808455 0 0 0
666 7 4 0.053 30.69253943905352 3.3860572969355243 7.710135544475724 0 0 0
667 7 3 0.271 30.72159760849177 1.2847461724548226 7.542543920507972 0 0 0
1016 1 2 -0.106 24.246575711212856 2.552663164945292 3.5687351876930657 0 0 0
1268 1 2 -0.106 29.289974384557908 2.45496912993505 3.9767905826220993 0 0 0
1269 1 4 0.053 29.198587962983076 1.509109250878857 4.589681373354452 0 0 0
1270 1 1 0.106 28.058280180135938 2.604077608059224 3.102125088051034 0 0 0
1274 1 4 0.053 29.217276236908233 3.346146697411212 4.655401644991471 0 0 0
1297 3 4 0.053 29.182205593127073 6.797358494185265 7.202158527822072 0 0 0
1299 3 4 0.053 28.317453952082445 7.067745199551565 4.931774966797186 0 0 0
1354 7 1 0.106 28.045182771526797 2.5335861227004512 8.27977382180702 0 0 0
1355 7 4 0.053 28.154485145601186 1.7280105825907937 7.498586950087995 0 0 0
1356 7 3 0.271 28.04408039857441 3.7295768626357524 7.469303085005589 0 0 0
1357 7 5 -0.43 27.978758142206843 4.631443540448148 6.763560983774508 0 0 0
452 7 2 -0.106 26.77426608563666 2.4710168569090065 9.120355939124355 0 0 0
1352 7 2 -0.106 29.346514207739425 2.474903728206021 9.214594501192975 0 0 0
1044 3 2 -0.106 24.349450793626296 7.837424763070841 6.301005452965438 0 0 0
1100 7 2 -0.106 24.180182094712023 2.5339406599300975 9.06559441951181 0 0 0
398 3 1 0.106 25.676753785638297 7.727820749061885 5.45539601576956 0 0 0
1298 3 1 0.106 28.286517501990183 7.904228083304761 5.65230428824243 0 0 0
1271 1 4 0.053 28.067851060235085 1.7921228980226667 2.3410677229049335 0 0 0
618 1 4 0.053 30.71473436433707 3.4374337541788917 2.483342529275139 0 0 0
1296 3 2 -0.106 29.48786175471558 7.690189657190855 6.649125495783072 0 0 0
396 3 2 -0.106 26.97208572623368 7.763685926323893 6.3848181148094305 0 0 0
371 1 4 0.053 25.582611955304422 3.2828942171647464 2.1037236948744504 0 0 0
2077 33 4 0.053 27.041922181516057 6.780487313939728 2.3118871088079342 0 0 1
457 7 5 -0.43 25.315982883982436 0.6236327359453555 6.6452203952017115 0 0 0
372 1 3 0.271 25.562033763849847 1.1846732430180045 2.100077113274136 0 0 0
619 1 3 0.271 30.684770147353277 1.328785399243977 2.276681582430501 0 0 0
1272 1 3 0.271 28.10941615584177 3.777928202147161 2.3022005468041806 0 0 0
453 7 4 0.053 26.817246990874906 1.4514439015968474 9.647179939996231 0 0 0
2725 33 4 0.053 24.31321063444971 6.892826795536405 2.48384493734067 0 0 1
2977 33 4 0.053 29.709747011425613 7.0249703883008925 2.208554964384248 0 0 1
791 3 4 0.053 3.674336019851958 8.814749321119502 7.170644242306377 0 0 0
140 3 4 0.053 4.934202646391679 8.357850431241836 4.975234006706882 0 0 0
15 3 4 0.053 1.0275270908691274 8.712983545302212 7.213707641390947 0 0 0
143 3 4 0.053 6.189171354610219 8.885707726065787 7.148708138139962 0 0 0
1041 3 3 0.271 7.474068795877136 8.732251086370493 4.7080353720409125 0 0 0
25 5 2 -0.106 1.2619141474687332 12.756504491106824 4.170944229787608 0 0 0
26 5 4 0.053 1.2335248183146303 11.84914673632383 4.805953061665865 0 0 0
165 5 2 -0.106 6.459135022896055 12.478071294880047 4.122650054787259 0 0 0
166 5 4 0.053 6.507018245114436 11.578449391117683 4.779231453214031 0 0 0
167 5 1 0.106 5.165957076379779 12.519318170372822 3.318563602913713 0 0 0
171 5 4 0.053 6.444551861051725 13.344911017339696 4.871125231762459 0 0 0
252 11 4 0.053 4.968395636646578 13.77821714337966 7.372633169059527 0 0 0
789 3 3 0.271 2.282880567988763 8.769698161513173 4.845777530710167 0 0 0
790 3 5 -0.43 2.319604477742086 9.644532019580717 4.09348324963703 0 0 0
813 5 2 -0.106 3.84214209602487 12.720500621133628 4.1134900028982955 0 0 0
814 5 4 0.053 3.803059448740197 11.999316660915396 4.945037159316264 0 0 0
815 5 1 0.106 2.538414813181201 12.742729276154416 3.291995030193422 0 0 0
819 5 4 0.053 3.915721986307366 13.624973275317558 4.695331305423769 0 0 0
900 11 4 0.053 2.5021684908808544 12.04486402092785 7.567742493267476 0 0 0
901 11 3 0.271 2.4385235066737176 14.12149029130472 7.415667597488044 0 0 0
902 11 5 -0.43 2.3554199225261865 15.076013564884764 6.787598155905598 0 0 0
1042 3 5 -0.43 7.464035496213378 9.457801755257028 3.7947325464355903 0 0 0
1067 5 1 0.106 7.689766319182552 12.493130802621916 3.2938321314223016 0 0 0
1151 11 1 0.106 7.637125256377778 12.983967454943521 8.054188890224754 0 0 0
1152 11 4 0.053 7.504150961458533 12.035377824647483 7.542900068564775 0 0 0
1153 11 3 0.271 7.483996190236364 14.110989962788945 7.109256678047428 0 0 0
1154 11 5 -0.43 7.449734340661636 14.992920111658908 6.3884631312413935 0 0 0
251 11 1 0.106 5.103661424895554 12.897298391361138 8.128167110195324 0 0 0
899 11 1 0.106 2.5335468257651494 12.965405557107735 8.222438061017037 0 0 0
253 11 3 0.271 5.00910674301834 11.734710147972253 7.294631039028028 0 0 0
254 11 5 -0.43 4.953458436434884 10.780336416654825 6.591550653578357 0 0 0
249 11 2 -0.106 6.447764134900552 13.031556396508382 8.948899894036028 0 0 0
27 5 4 0.053 1.4322300790472837 13.725227803611793 4.795260422871554 0 0 0
61 11 2 -0.106 1.3066455123480587 12.858500304441648 9.059479781328179 0 0 0
897 11 2 -0.106 3.8488850073495544 12.957078843104206 9.050767131783658 0 0 0
168 5 4 0.053 5.196199262238531 13.441597443574276 2.591380098310829 0 0 0
1068 5 4 0.053 7.719757322017689 11.67281390111075 2.5494768246162316 0 0 0
816 5 4 0.053 2.4290609228045192 11.858782830818145 2.7034459282900265 0 0 0
169 5 3 0.271 4.972919468015697 11.370738897440233 2.512959455625858 0 0 0
874 9 5 -0.43 2.1762006509000633 9.524755252949145 8.965032686275885 0 0 0
1126 9 5 -0.43 7.270385156516407 9.432805491064382 8.912410206461166 0 0 0
1069 5 3 0.271 7.673200949031162 13.621241565597494 2.445228389847152 0 0 0
212 8 5 -0.43 4.853929500015924 15.999830448035159 9.198484447973492 0 0 0
128 2 5 -0.43 4.675647932105598 15.681571491918438 4.451992800158223 0 0 0
817 5 3 0.271 2.5881213392458013 13.774476798310126 2.2568791528335415 0 0 0
903 11 4 0.053 3.7934514655111764 13.964327725154105 9.621681500970691 0 0 0
250 11 4 0.053 6.580731736697894 12.220514470980872 9.640243287341967 0 0 0
62 11 4 0.053 1.390354663004682 11.901290130554328 9.587225056461673 0 0 0
255 11 4 0.053 6.3527877817210445 13.934759542483693 9.572002608098806 0 0 0
2471 33 4 0.053 3.8926715838193418 8.218920912310239 2.1830142356179087 0 0 1
1295 3 4 0.053 14.238607830805257 8.504788460340903 7.380847145860737 0 0 0
395 3 4 0.053 11.27915185575562 8.86416422943174 7.046114310141192 0 0 0
630 3 4 0.053 15.19682577937509 8.607392659530062 5.0021799481204745 0 0 0
392 3 4 0.053 10.07596939329732 8.488477112304025 4.93774723875562 0 0 0
1043 3 4 0.053 9.022882558975956 8.935460922943099 6.83232806634571 0 0 0
1071 5 4 0.053 9.039433372039388 13.305465751913696 4.737379101102529 0 0 0
1066 5 4 0.053 9.127548741050129 11.588785069980526 4.755871048290759 0 0 0
417 5 2 -0.106 11.571671804153883 12.984157254238497 3.982742391251435 0 0 0
418 5 4 0.053 11.657562105839666 12.290474953370266 4.848209787292417 0 0 0
419 5 1 0.106 10.280573644285703 12.568233904836113 3.2032076315062072 0 0 0
423 5 4 0.053 11.32877955571862 13.918391863291633 4.455085798875022 0 0 0
503 11 1 0.106 10.23952452513654 12.923586095031121 7.956362733978586 0 0 0
504 11 4 0.053 10.20342756062635 13.848402519521306 7.291544082045231 0 0 0
505 11 3 0.271 10.283475003260934 11.726112891185291 7.224359097990952 0 0 0
506 11 5 -0.43 10.342428560588033 10.744507492940953 6.640718104924138 0 0 0
645 5 1 0.106 15.376082966888204 12.856772314228985 3.3627929035763007 0 0 0
693 11 1 0.106 15.561556768032727 13.071586124435369 7.98555343784246 0 0 0
694 11 4 0.053 15.597172429441267 13.938049705441863 7.306200084777646 0 0 0
695 11 3 0.271 15.679134859112862 11.91762218356294 7.159348977518831 0 0 0
696 11 5 -0.43 15.817033551477481 10.991960307574761 6.510842887345646 0 0 0
1065 5 2 -0.106 9.042035402165686 12.409059631874339 4.07369274950723 0 0 0
1293 3 3 0.271 12.902799556021037 8.914489639805803 4.816806931257206 0 0 0
1294 3 5 -0.43 13.032040307200623 9.753635870512626 4.0798670893085625 0 0 0
1317 5 2 -0.106 14.044168450081067 13.039844693657153 4.157231021077552 0 0 0
1318 5 4 0.053 13.845189965364943 12.154592401848904 4.866311889961421 0 0 0
1319 5 1 0.106 12.853510564819542 13.080540249470317 3.1541166084447445 0 0 0
1323 5 4 0.053 13.985473027833272 13.915901587093371 4.765498948638562 0 0 0
1403 11 1 0.106 12.902207848932324 13.085729807270576 7.879962847859932 0 0 0
1404 11 4 0.053 12.89804178065118 12.180577291062221 7.237558161122923 0 0 0
1405 11 3 0.271 12.881457102906142 14.148466372407905 7.024603985697432 0 0 0
1406 11 5 -0.43 12.855620026988372 15.020899591107167 6.219477830776221 0 0 0
1149 11 2 -0.106 8.947365913800768 12.926899398794438 8.802179024795587 0 0 0
1401 11 2 -0.106 14.22818889244782 13.20557854193706 8.713805041797663 0 0 0
1320 5 4 0.053 12.932572935336117 12.134614727925102 2.5179445400639215 0 0 0
501 11 2 -0.106 11.575993668622216 13.049903107001942 8.7629822265569 0 0 0
646 5 4 0.053 15.222569917963602 13.65805977395622 2.682034515378419 0 0 0
647 5 3 0.271 15.333290133482373 11.690862375750443 2.5915721610062374 0 0 0
420 5 4 0.053 10.091702817706414 13.307132364504842 2.472491047315812 0 0 0
421 5 3 0.271 10.460012852025612 11.337197874188186 2.4084048059841514 0 0 0
624 2 5 -0.43 15.17334461563774 15.979482954271287 3.8056242822920323 0 0 0
380 2 5 -0.43 9.802642214037888 15.759055947824491 3.8545679069540384 0 0 0
507 11 4 0.053 11.531596968692325 13.915414842296276 9.442427031845781 0 0 0
1321 5 3 0.271 12.833322750794155 14.182010839901173 2.3054791968504245 0 0 0
1378 9 5 -0.43 12.483838028423639 10.094793612087638 8.825147168458816 0 0 0
1402 11 4 0.053 14.121341836892709 12.417957573603582 9.459634397806855 0 0 0
502 11 4 0.053 11.768900345548442 12.266238898130135 9.509146251970817 0 0 0
1155 11 4 0.053 8.98909051703041 13.803560988623646 9.51503230637178 0 0 0
1150 11 4 0.053 8.935766173451185 12.056960688602308 9.49552705997381 0 0 0
464 8 5 -0.43 9.547659131388198 15.951485639531562 9.604317250122314 0 0 0
1407 11 4 0.053 14.27468835250163 14.077942147680323 9.361922301916522 0 0 0
1377 9 3 0.271 12.468088164309146 9.185281405589349 9.509229578753501 0 0 0
678 9 4 0.053 15.237939709630242 8.844345018482327 9.630483209873919 0 0 0
147 3 4 0.053 20.564927047990167 8.522001790347666 4.564158246311823 0 0 0
150 3 4 0.053 21.679685098282945 8.45199266869285 6.983966141857741 0 0 0
18 3 4 0.053 16.712239015552136 8.775090677872603 7.047718732947314 0 0 0
798 3 4 0.053 19.221416095031906 8.84125862979929 6.835461554632176 0 0 0
30 5 4 0.053 16.881966525294914 13.939670793284929 4.597808285623768 0 0 0
28 5 2 -0.106 16.673309857651525 12.87187943396763 4.106711525114495 0 0 0
29 5 4 0.053 16.79948164780574 12.1130758456602 4.8285472757830625 0 0 0
172 5 2 -0.106 21.752955174149918 12.943169780001686 3.8843065711278744 0 0 0
173 5 4 0.053 21.776268729363323 12.03276404787768 4.550150186002767 0 0 0
174 5 1 0.106 20.495664721952515 12.845273488767871 2.9815752295000753 0 0 0
178 5 4 0.053 21.662447361512456 13.872227699774543 4.479374576697157 0 0 0
258 11 1 0.106 20.754957075984784 13.162051216194147 8.02509984178479 0 0 0
259 11 4 0.053 20.675033536449703 13.88573909736968 7.253326958295018 0 0 0
260 11 3 0.271 20.74007817198222 11.891968640794936 7.337908625409256 0 0 0
261 11 5 -0.43 20.714498941573133 10.908892765052771 6.719253556177718 0 0 0
796 3 3 0.271 17.859742861873862 9.034622404118865 4.605369458990403 0 0 0
797 3 5 -0.43 17.797508799498786 9.961167019863344 3.8877656602333843 0 0 0
820 5 2 -0.106 19.172564436869926 12.820090318848905 3.855642700858093 0 0 0
821 5 4 0.053 19.215132735901022 12.01133092517243 4.5996591802785645 0 0 0
822 5 1 0.106 17.851534538020303 12.775001088494504 3.124511479856812 0 0 0
826 5 4 0.053 19.133953017931987 13.703872046411826 4.366088880316035 0 0 0
906 11 1 0.106 18.10344820468284 13.33509144424643 8.047626729516047 0 0 0
907 11 4 0.053 18.125961355523714 12.537779109459732 7.345296940290876 0 0 0
908 11 3 0.271 18.10197525316645 14.54910313555635 7.347176329819629 0 0 0
909 11 5 -0.43 18.076935842339587 15.521366311571276 6.7618566406311835 0 0 0
1048 3 3 0.271 23.082543962844177 9.081222903504761 4.7005892185186795 0 0 0
1049 3 5 -0.43 23.111650609739456 10.086145778824585 4.076970631309671 0 0 0
1074 5 1 0.106 23.119185078646574 13.110812120209285 3.144993602451428 0 0 0
1158 11 1 0.106 23.381259910994814 13.292804661851452 8.149792203558658 0 0 0
1159 11 4 0.053 23.4340833671141 12.395300091407709 7.451981180979089 0 0 0
1160 11 3 0.271 23.571982497103022 14.414899706507768 7.364651039061879 0 0 0
256 11 2 -0.106 22.023124834859715 13.349473459759697 8.845460004187593 0 0 0
904 11 2 -0.106 19.429201530313 13.254022383082011 8.915060921223418 0 0 0
64 11 2 -0.106 16.840622139326058 13.288921165515168 8.903239116649843 0 0 0
1133 9 5 -0.43 23.03896950344533 9.978860390827032 9.110161982641948 0 0 0
175 5 4 0.053 20.56520504925966 13.72864223117637 2.3401064047895863 0 0 0
823 5 4 0.053 17.791928735777688 11.730071365573686 2.6813229721445375 0 0 0
881 9 5 -0.43 18.005241604758957 10.24186518467835 8.977447002127477 0 0 0
824 5 3 0.271 17.794497384523588 13.751948656153381 2.087982428706538 0 0 0
135 2 5 -0.43 20.37176824942692 15.787085254980887 4.2053167578397765 0 0 0
262 11 4 0.053 21.93693131954477 14.382215792704448 9.289829667307938 0 0 0
65 11 4 0.053 16.91051903643322 12.449652968476563 9.639016519992037 0 0 0
910 11 4 0.053 19.46459487903762 14.160816153682505 9.526910974701643 0 0 0
66 11 4 0.053 16.774712432561287 14.243980044659724 9.488258829315903 0 0 0
905 11 4 0.053 19.39620115974023 12.365048412236456 9.486435727697092 0 0 0