LAMMPS data file via write_data, version 27 Jun 2024, timestep = 1000000, units = real

3024 atoms
5 atom types
3024 bonds
5 bond types
5616 angles
8 angle types
9072 dihedrals
8 dihedral types
3456 impropers
5 improper types

0.4955582245455865 31.345553109451348 xlo xhi
0.7619981897625241 30.697918982237198 ylo yhi
0.8096988518311221 33.870947457172534 zlo zhi
0.1149462488225958 0 0.7503260211896382 xy xz yz

Atom Type Labels

1 c1
2 c2
3 ct
4 hpan
5 nt

Bond Type Labels

1 c1-c2
2 c1-ct
3 c1-hpan
4 c2-hpan
5 ct-nt

Angle Type Labels

1 c1-c2-c1
2 c1-c2-hpan
3 c1-ct-nt
4 c2-c1-c2
5 c2-c1-ct
6 c2-c1-hpan
7 ct-c1-hpan
8 hpan-c2-hpan

Dihedral Type Labels

1 hpan-c2-c1-ct
2 c2-c1-c2-hpan
3 hpan-c1-c2-hpan
4 hpan-c1-ct-nt
5 c2-c1-ct-nt
6 c1-c2-c1-c2
7 c1-c2-c1-ct
8 c1-c2-c1-hpan

Improper Type Labels

1 c1-c2-c1-hpan-nb!=3
2 c1-c2-hpan-hpan-nb!=3
3 c2-c1-c2-ct-nb!=3
4 c2-c1-c2-hpan-nb!=3
5 c2-c1-ct-hpan-nb!=3

Masses

1 12.01115
2 12.01115
3 12.01115
4 1.00797
5 14.0067

Pair Coeffs # lj/class2/coul/long

1 0.054 4.01
2 0.054 4.01
3 0.064 4.01
4 0.02 2.3
5 0.065 3.57

Bond Coeffs # morse

1 82.6961 2 1.53
2 82.6961 1.5 1.42
3 98.2315 2 1.101
4 98.2315 2 1.101
5 211.998 1.6 1.158

Angle Coeffs # class2xe

1 112.67 39.516 -7.443 -9.5583
2 110.77 41.453 -10.604 5.129
3 180 200 0 0
4 112.67 39.516 -7.443 -9.5583
5 109.5 46 0 0
6 110.77 41.453 -10.604 5.129
7 109.5 42 0 0
8 107.66 39.641 -12.921 -2.4318

BondBond Coeffs

1 82.6961 0 1.53 1.53
2 90.4638 0.136826 1.53 1.101
3 147.347 0 1.42 1.158
4 82.6961 0 1.53 1.53
5 82.6961 0 1.53 1.42
6 90.4638 0.136826 1.53 1.101
7 90.4638 0 1.42 1.101
8 98.2315 0.164736 1.101 1.101

BondAngle Coeffs

1 82.6961 82.6961 0.220151 0.220151 1.53 1.53
2 82.6961 98.2315 0.354237 0.241108 1.53 1.101
3 82.6961 211.998 0 0 1.42 1.158
4 82.6961 82.6961 0.220151 0.220151 1.53 1.53
5 82.6961 82.6961 0 0 1.53 1.42
6 82.6961 98.2315 0.354237 0.241108 1.53 1.101
7 82.6961 98.2315 0 0 1.42 1.101
8 98.2315 98.2315 0.303553 0.303553 1.101 1.101

Dihedral Coeffs # class2xe

1 0 0 0.0316 0 -0.1681 0
2 0 0 0.0316 0 -0.1681 0
3 -0.1432 0 0.0617 0 -0.1083 0
4 0 0 0 0 0 0
5 0 0 0 0 0 0
6 0 0 0.0514 0 -0.143 0
7 0 0 0.0514 0 -0.143 0
8 0 0 0.0316 0 -0.1681 0

AngleAngleTorsion Coeffs

1 0 110.77 109.5
2 -16.164 112.67 110.77
3 -12.564 110.77 110.77
4 0 109.5 180
5 0 109.5 180
6 -22.045 112.67 112.67
7 0 112.67 109.5
8 -16.164 112.67 110.77

EndBondTorsion Coeffs

1 2 1.5 0 0 0 0 0 0 1.101 1.42
2 2 2 0.2486 0.2422 -0.0925 0.0814 0.0591 0.2219 1.53 1.101
3 2 2 0.213 0.312 0.0777 0.213 0.312 0.0777 1.101 1.101
4 2 1.6 0 0 0 0 0 0 1.101 1.158
5 2 1.6 0 0 0 0 0 0 1.53 1.158
6 2 2 -0.0732 0 0 -0.0732 0 0 1.53 1.53
7 2 1.5 0 0 0 0 0 0 1.53 1.42
8 2 2 0.2486 0.2422 -0.0925 0.0814 0.0591 0.2219 1.53 1.101

MiddleBondTorsion Coeffs

1 2 0 0 0 1.53
2 2 -14.879 -3.6581 -0.3138 1.53
3 2 -14.261 -0.5322 -0.4864 1.53
4 1.5 0 0 0 1.42
5 1.5 0 0 0 1.42
6 2 -17.787 -7.1877 0 1.53
7 2 0 0 0 1.53
8 2 -14.879 -3.6581 -0.3138 1.53

BondBond13 Coeffs

1 90.4638 0 1.101 1.42
2 90.4638 0 1.53 1.101
3 98.2315 0 1.101 1.101
4 155.115 0 1.101 1.158
5 147.347 0 1.53 1.158
6 82.6961 0 1.53 1.53
7 82.6961 0 1.53 1.42
8 90.4638 0 1.53 1.101

AngleTorsion Coeffs

1 0 0 0 0 0 0 110.77 109.5
2 -0.2454 0 -0.1136 0.3113 0.4516 -0.1988 112.67 110.77
3 -0.8085 0.5569 -0.2466 -0.8085 0.5569 -0.2466 110.77 110.77
4 0 0 0 0 0 0 109.5 180
5 0 0 0 0 0 0 109.5 180
6 0.3886 -0.3139 0.1389 0.3886 -0.3139 0.1389 112.67 112.67
7 0 0 0 0 0 0 112.67 109.5
8 -0.2454 0 -0.1136 0.3113 0.4516 -0.1988 112.67 110.77

Improper Coeffs # class2

1 0 0
2 0 0
3 0 0
4 0 0
5 0 0

AngleAngle Coeffs

1 -1.3199 -1.3199 0.1184 112.67 110.77 110.77
2 0.2738 -0.4825 0.2738 110.77 110.77 107.66
3 0 0 0 112.67 109.5 109.5
4 -1.3199 -1.3199 0.1184 112.67 110.77 110.77
5 0 0 0 109.5 109.5 110.77

Atoms # full

1 1 2 -0.106 0.9814409199051424 2.7366220547011144 3.489153057752714 0 0 0
109 1 2 -0.106 6.096679586455998 2.7612659823506096 3.8225271206032696 0 0 0
110 1 4 0.053 6.118074201530581 1.7514357791031263 4.233640810771824 0 0 0
111 1 1 0.106 4.788398749556693 2.9452958404409415 2.9089212315963504 0 0 0
112 1 4 0.053 4.8033885978014785 4.0266605876228105 2.5916302363898422 0 0 0
113 1 3 0.271 4.685852052460124 2.0780554791910752 1.8388210660804585 0 0 0
115 1 4 0.053 5.918847877661071 3.4498968900184903 4.701474448070919 0 0 0
141 3 3 0.271 4.656623289017588 6.319028071850108 5.944093575645822 0 0 0
142 3 5 -0.43 4.516071698476735 5.172751591515149 5.910313514432143 0 0 0
196 7 4 0.053 4.638902186369395 4.098449104589827 8.243266846155981 0 0 0
757 1 2 -0.106 3.5418445629694584 2.7501982119220396 3.7263614838474064 0 0 0
758 1 4 0.053 3.145014313384452 1.739136681047769 3.80493807100081 0 0 0
759 1 1 0.106 2.303614786049809 3.4642047179036517 2.997855309679016 0 0 0
760 1 4 0.053 2.353356907294833 3.2267434109611353 1.893070493342532 0 0 0
761 1 3 0.271 2.3112631053880515 4.858471472815786 3.1124266125938735 0 0 0
763 1 4 0.053 3.4706528563535812 3.194875804483877 4.707798949440701 0 0 0
788 3 4 0.053 2.219324990740948 7.0124929970942365 5.598548885763609 0 0 0
844 7 4 0.053 2.4168780964027503 3.2009458669095068 7.528335085786478 0 0 0
1011 1 1 0.106 7.3758833260953836 3.286969678122174 3.1549992460736025 0 0 0
1012 1 4 0.053 7.520872537057087 2.9364450554014856 2.1187422359956773 0 0 0
1013 1 3 0.271 7.339680252162321 4.751271807284196 2.9236201427222426 0 0 0
1040 3 4 0.053 7.512067531496803 7.0093993429837935 5.12230679863868 0 0 0
1096 7 4 0.053 7.5514417496224056 2.6629803237740073 7.418887404552457 0 0 0
195 7 1 0.106 4.7069158411722745 2.988865041113321 8.46497666491391 0 0 0
197 7 3 0.271 4.7358547700149405 2.1860801239995737 7.283928508348198 0 0 0
1095 7 1 0.106 7.333111466970607 3.1076239481652466 8.447799625111994 0 0 0
845 7 3 0.271 2.339781399247511 4.752909963085306 8.742320853712812 0 0 0
1014 1 5 -0.43 7.3245915317070045 5.892614927535323 2.699310708971164 0 0 0
762 1 5 -0.43 2.3370609674848177 6.0236864723900885 3.181101788378869 0 0 0
843 7 1 0.106 2.233418521876588 3.384403193260836 8.620088485432815 0 0 0
1097 7 3 0.271 7.164799074556151 4.502750784517117 8.21394771610801 0 0 0
846 7 5 -0.43 2.457201569081646 5.884230734148282 8.866504376317925 0 0 0
139 3 1 0.106 4.830698781117827 7.761702215104058 5.841419154658549 0 0 0
2 1 4 0.053 1.1631373553711204 1.6676222800241836 3.826831384255318 0 0 0
1098 7 5 -0.43 7.1034113521160815 5.608765882900396 8.035883432194273 0 0 0
2466 33 4 0.053 3.2651780118561056 8.036452829732983 1.8783594079365522 0 0 1
1039 3 1 0.106 7.4513545810996975 8.035552974754065 5.555992668334333 0 0 0
138 3 4 0.053 6.341692389819818 7.757276335799019 7.4203615649740025 0 0 0
14 3 4 0.053 1.0774784165095919 7.823134347087536 7.437876768293029 0 0 0
786 3 4 0.053 3.481857035837883 8.003935120193752 7.558381012288257 0 0 0
3 1 4 0.053 0.6062773793828443 3.142919901389707 4.451557735598219 0 0 0
1598 33 4 0.053 1.1034606703227048 7.649191904206921 1.6684553426852347 0 0 1
787 3 1 0.106 2.2810514356194975 8.122875299059793 5.810619158391065 0 0 0
1818 33 4 0.053 5.885207674941239 8.130953354481194 2.0240793882435826 0 0 1
198 7 5 -0.43 4.810839287987662 1.4983256953415927 6.357075112664605 0 0 0
140 3 4 0.053 4.76615331655879 7.992036197834851 4.767946124078311 0 0 0
137 3 2 -0.106 6.158178030087363 8.212006504683018 6.394672978335378 0 0 0
37 7 2 -0.106 0.8096206582334611 2.9240785102415567 8.97684996771901 0 0 0
114 1 5 -0.43 4.683118654933858 1.3693792955433157 0.8978600078076265 0 0 0
1010 1 4 0.053 8.419064018791671 1.9199261752841323 4.454964709306866 0 0 0
1015 1 4 0.053 8.535804475625811 3.5651324010900005 4.946838990479484 0 0 0
1009 1 2 -0.106 8.60319982314681 2.94697491705552 4.059029130890318 0 0 0
361 1 2 -0.106 11.191077576797918 2.736386122334343 4.239001914893432 0 0 0
363 1 1 0.106 9.960294158571976 2.978128856584368 3.4097150938230265 0 0 0
364 1 4 0.053 10.092146532861998 3.904360219399627 2.8814891050259743 0 0 0
365 1 3 0.271 9.911081769921575 1.9795671169937186 2.275350846648524 0 0 0
367 1 4 0.053 11.161413611319814 3.3285672277986125 5.120051560635106 0 0 0
393 3 3 0.271 9.997846121548097 6.368509595760575 5.664460786395991 0 0 0
394 3 5 -0.43 9.95202329190151 5.223442001273001 5.5565873174045 0 0 0
448 7 4 0.053 9.97485079471471 4.087365699914756 8.044678987645103 0 0 0
449 7 3 0.271 9.985175565996574 2.1596412396996643 7.41923436970184 0 0 0
613 1 1 0.106 15.089707798280276 3.1420245658320596 3.2288368585977003 0 0 0
614 1 4 0.053 15.05977151146363 4.228476949349767 2.8353242093265942 0 0 0
615 1 3 0.271 15.058092028782026 2.333152980676128 2.028496136991002 0 0 0
631 3 3 0.271 15.185221439505147 6.1482186467774085 6.111863746109908 0 0 0
661 7 1 0.106 15.062711671051517 2.6340718877182727 8.653724884419228 0 0 0
662 7 4 0.053 15.156272393796792 3.7239807316715168 8.430754287313086 0 0 0
663 7 3 0.271 14.979435623794702 1.9327259839885662 7.4539812459774115 0 0 0
1261 1 2 -0.106 13.840735865863959 2.772445378420097 4.046464527671221 0 0 0
1262 1 4 0.053 13.758299562898108 1.6697831046303429 4.195047765782098 0 0 0
1263 1 1 0.106 12.463684122393836 3.207303141092854 3.464458531449131 0 0 0
1264 1 4 0.053 12.574736148620982 2.7406253116968893 2.5012085215940827 0 0 0
1265 1 3 0.271 12.430760119489928 4.6060220447177045 3.2374305662121823 0 0 0
1267 1 4 0.053 13.918368502763956 3.2080293929307713 5.0738459779761005 0 0 0
1292 3 4 0.053 12.66897492181513 6.878123313153564 5.21587945849664 0 0 0
1348 7 4 0.053 12.68032638957152 2.7272950557522053 7.6986553282225865 0 0 0
447 7 1 0.106 9.934317893663893 3.084610890168429 8.517838272533876 0 0 0
629 3 1 0.106 15.13999497436319 7.509554890551253 5.809175656211563 0 0 0
1266 1 5 -0.43 12.371558690289621 5.77980924870705 3.07687098548742 0 0 0
632 3 5 -0.43 15.233450999532336 5.051296810248869 6.4082890142891955 0 0 0
1347 7 1 0.106 12.538594999956905 3.0848445434867564 8.756241549221077 0 0 0
1349 7 3 0.271 12.67925608018856 4.468313018908361 8.564600450063882 0 0 0
362 1 4 0.053 11.411312162140588 1.6717301056400466 4.524727731056792 0 0 0
391 3 1 0.106 9.988387783462384 7.839687105903946 5.7516381131468854 0 0 0
450 7 5 -0.43 9.984552170155853 1.4162033574200752 6.530134355279591 0 0 0
2070 33 4 0.053 11.389271036955723 7.6542160273685225 1.8292897400390893 0 0 1
1291 3 1 0.106 12.602181738819134 7.89289484338792 5.570311698080437 0 0 0
2970 33 4 0.053 13.721927657810307 7.788148882058482 1.7132649859897973 0 0 1
664 7 5 -0.43 14.948019722825483 1.3411064146168803 6.462402141907962 0 0 0
1290 3 4 0.053 13.756929649614426 7.649231698270347 7.3550818034589724 0 0 0
1350 7 5 -0.43 12.827376504628528 5.592622512928978 8.420189290983618 0 0 0
390 3 4 0.053 11.480924757113588 7.739212040310277 7.346587995991959 0 0 0
1038 3 4 0.053 8.53088783319872 7.8916728355173165 7.389905120497508 0 0 0
2718 33 4 0.053 8.698457679080509 7.6866617090375655 2.1319852968121538 0 0 1
630 3 4 0.053 15.218458932602223 7.638597338100256 4.748760529463917 0 0 0
392 3 4 0.053 9.941917064570278 8.288327986533572 4.671056556037973 0 0 0
389 3 2 -0.106 11.357557464594057 8.208256185366285 6.380175795449324 0 0 0
1037 3 2 -0.106 8.661198901495652 8.31451876147861 6.416639852476535 0 0 0
1289 3 2 -0.106 13.88300100187638 8.151744950817953 6.361237315016537 0 0 0
2069 33 2 -0.106 11.203967044734968 8.042984522921628 0.8519671395263217 0 0 1
366 1 5 -0.43 9.907942243182092 1.1732950549986134 1.4506338669590082 0 0 0
616 1 5 -0.43 15.016557908532999 1.676730429503627 1.066018711363976 0 0 0
2717 33 2 -0.106 8.707310672253692 8.12475176460971 1.0601107102394436 0 0 1
785 3 2 -0.106 3.541022703860992 8.433258659953946 6.528339531397244 0 0 0
13 3 2 -0.106 0.9657598405073566 8.36599399939442 6.523970015562821 0 0 0
15 3 4 0.053 0.8638131744847493 9.447893725432966 6.824894571780112 0 0 0
27 5 4 0.053 1.0468349603278768 13.307394482946822 4.374862164421175 0 0 0
1041 3 3 0.271 7.387715420045096 8.973557436113229 4.453194799732561 0 0 0
789 3 3 0.271 2.2205573697897636 8.959911919925325 4.649912010808488 0 0 0
25 5 2 -0.106 1.123075155795279 12.756222324345398 3.436844170812433 0 0 0
790 3 5 -0.43 2.156043974283394 9.562531286261645 3.646792603188978 0 0 0
143 3 4 0.053 6.050196527054561 9.276343578452915 6.703120585643343 0 0 0
791 3 4 0.053 3.8290356984077936 9.51911031803375 6.620066609034652 0 0 0
165 5 2 -0.106 6.126986987217074 12.919725826602875 3.4821739501947993 0 0 0
166 5 4 0.053 6.2797886033368195 11.812977726670002 3.4690816183263875 0 0 0
167 5 1 0.106 4.910128573244802 13.0982353258831 2.641740832055941 0 0 0
168 5 4 0.053 4.91535766154763 14.148399572772101 2.2988042000571953 0 0 0
169 5 3 0.271 5.028936594901971 12.245186134368312 1.5077707717949957 0 0 0
171 5 4 0.053 5.990028697095665 13.419950006348161 4.440149029097309 0 0 0
252 11 4 0.053 4.708179269973383 14.044262899570123 7.9681934359317275 0 0 0
813 5 2 -0.106 3.6330722367042476 12.805798500043526 3.4909742826979415 0 0 0
814 5 4 0.053 3.6941700982960946 11.742561149944535 3.8328321918261503 0 0 0
815 5 1 0.106 2.4071999054087194 13.065515184627635 2.6206360520493224 0 0 0
816 5 4 0.053 2.4139352307318642 12.448450898004351 1.6913151493847804 0 0 0
819 5 4 0.053 3.5208343538535822 13.426780217313926 4.4040430862355935 0 0 0
900 11 4 0.053 2.215975703509689 12.797922963572047 7.4113196260628476 0 0 0
901 11 3 0.271 2.0460728036269193 14.64443417440925 8.284072346355341 0 0 0
1042 3 5 -0.43 7.355410384757724 9.736740056833117 3.583378134548955 0 0 0
1067 5 1 0.106 7.3790927917603035 13.459791029652855 2.821183850854348 0 0 0
1068 5 4 0.053 7.462597884068329 13.038164506984593 1.8395047398444584 0 0 0
1152 11 4 0.053 7.290087058960089 12.737659701181181 7.33447707371682 0 0 0
251 11 1 0.106 4.673209862842756 12.992331868785463 8.26244252280319 0 0 0
899 11 1 0.106 2.103308530840863 13.238521319110482 8.397911267135637 0 0 0
1151 11 1 0.106 7.3300829815922315 13.109551549989508 8.345391481977982 0 0 0
817 5 3 0.271 2.3018118257022575 14.47171911787792 2.3138275207560337 0 0 0
1069 5 3 0.271 7.4458413198868865 14.858003556625503 2.8527306663174463 0 0 0
253 11 3 0.271 4.577348205934151 12.185823030758138 7.112485658001286 0 0 0
254 11 5 -0.43 4.461509478409896 11.520560241669534 6.182878617034904 0 0 0
128 2 5 -0.43 4.808403495616685 15.019679081643153 5.667273439840392 0 0 0
1153 11 3 0.271 7.329998588485368 14.510140709804343 8.219679401823612 0 0 0
26 5 4 0.053 1.1200609548943117 11.69226860910156 3.753939898197816 0 0 0
818 5 5 -0.43 2.252495448920122 15.578575427287051 2.07910208412388 0 0 0
902 11 5 -0.43 2.041595443487518 15.809987766404774 8.12136020258192 0 0 0
1126 9 5 -0.43 7.448447815030297 9.600333769570506 9.004012794860508 0 0 0
249 11 2 -0.106 6.018163020876307 12.707973251081599 9.046202916366077 0 0 0
874 9 5 -0.43 2.1785344636109376 9.925800806972639 9.00839387058978 0 0 0
61 11 2 -0.106 0.7985150894478685 12.705593461825503 8.999097155507835 0 0 0
1066 5 4 0.053 8.175883197734425 12.04659284237689 4.084299999040183 0 0 0
1154 11 5 -0.43 7.3145559467883565 15.666693135113242 8.226193839400976 0 0 0
1823 33 4 0.053 5.7265037384089785 9.427205379598773 0.9977724174043551 0 0 1
2465 33 2 -0.106 3.489482908050211 8.374831924810797 0.8477021813628091 0 0 1
1599 33 4 0.053 0.8084139970662112 9.216079479978761 1.017357325294937 0 0 1
1817 33 2 -0.106 5.9500760052451795 8.414784689254324 0.9955258633324997 0 0 1
2471 33 4 0.053 3.610861042013433 9.455492070382643 0.8114670537641836 0 0 1
624 2 5 -0.43 15.360451541822627 15.319719876796414 5.5669751126240286 0 0 0
1293 3 3 0.271 12.469836620954563 8.761903598565354 4.497579089621059 0 0 0
1043 3 4 0.053 8.687835070007427 9.416148082324938 6.621947810772532 0 0 0
1294 3 5 -0.43 12.323152152735933 9.45385032461971 3.6406088897597675 0 0 0
1071 5 4 0.053 8.512971294234863 13.77428352525986 4.548369903279089 0 0 0
395 3 4 0.053 11.383941482624335 9.259486122755126 6.706533104146354 0 0 0
417 5 2 -0.106 11.188274768121024 12.93432941063452 3.7146665372166576 0 0 0
418 5 4 0.053 11.337714096790107 11.854486459342846 3.839826378095886 0 0 0
419 5 1 0.106 9.928028895211972 13.188630599172027 3.0014341459236316 0 0 0
423 5 4 0.053 11.24976805479072 13.347374202071926 4.735691847819236 0 0 0
503 11 1 0.106 9.986665709679823 12.964900030926621 8.236704356075112 0 0 0
504 11 4 0.053 10.006215162521045 13.992472435916623 7.8414764822461125 0 0 0
505 11 3 0.271 10.006553542642882 12.218371538415958 7.026329143688097 0 0 0
645 5 1 0.106 14.986829714288579 13.135752172235575 2.952560352535306 0 0 0
647 5 3 0.271 14.940266215317411 12.400857968622994 1.7526643101273094 0 0 0
695 11 3 0.271 15.248550897067009 12.215521792824637 6.913454447839264 0 0 0
1065 5 2 -0.106 8.593569862206195 13.029137577537826 3.7009695659473634 0 0 0
1295 3 4 0.053 14.071397016645806 9.20364237347124 6.594957736317116 0 0 0
1317 5 2 -0.106 13.66353705667311 13.010090019703824 3.783839826117867 0 0 0
1318 5 4 0.053 13.528798623202961 11.939052755724267 4.12122757208445 0 0 0
1319 5 1 0.106 12.445096509655105 13.462161121689013 2.998345117188958 0 0 0
1320 5 4 0.053 12.456175537868145 13.075881217447574 1.9940377311652573 0 0 0
1323 5 4 0.053 13.723377447219667 13.551558191271404 4.703021767832642 0 0 0
1403 11 1 0.106 12.525131097167765 13.331331469054687 8.324631034390457 0 0 0
1404 11 4 0.053 12.49639646134101 13.110298734676102 7.2793820876768125 0 0 0
1405 11 3 0.271 12.486715717720102 14.818332371872508 8.430778471333777 0 0 0
1321 5 3 0.271 12.510192494409342 14.897658369378098 2.9077188647854304 0 0 0
420 5 4 0.053 10.032544866674849 14.192611970362512 2.5455680509717142 0 0 0
506 11 5 -0.43 10.037579685132387 11.636225242317447 6.077515578266588 0 0 0
693 11 1 0.106 15.161385017926627 13.123923453865327 8.033527583544458 0 0 0
694 11 4 0.053 15.150108614363628 14.131796170626618 7.652579332575229 0 0 0
646 5 4 0.053 15.039607266803033 14.229262479500978 2.6533129084159555 0 0 0
380 2 5 -0.43 10.305442114804125 15.249822267913206 5.710767590475638 0 0 0
421 5 3 0.271 9.83107249645828 12.473900017884295 1.7303798116415727 0 0 0
696 11 5 -0.43 15.240495649469313 11.492307418674432 6.03303003972778 0 0 0
1401 11 2 -0.106 13.894186558198761 12.809787722662813 8.852430369016458 0 0 0
1149 11 2 -0.106 8.629233917342683 12.678931510092212 9.00054131337839 0 0 0
2723 33 4 0.053 8.912888394693201 9.174431175700015 1.0584513692402742 0 0 1
2975 33 4 0.053 13.718261536718783 9.390946101718692 1.085447767691832 0 0 1
501 11 2 -0.106 11.28925527557735 12.639337320210476 9.05331607094565 0 0 0
1378 9 5 -0.43 12.159087478104281 9.292305680080942 8.964264616314745 0 0 0
1402 11 4 0.053 13.85100327921292 11.652294949500671 8.917066599429832 0 0 0
2075 33 4 0.053 10.97702613390465 9.141871170585837 0.9672426574168932 0 0 1
1070 5 5 -0.43 7.534751288397417 16.009611682444977 2.8970540656033728 0 0 0
127 2 3 0.271 4.845502204549036 16.142477988710148 5.555732734728478 0 0 0
20 4 4 0.053 1.7529908407923318 21.702401946336018 2.0647152708058067 0 0 0
7 2 2 -0.106 0.9408124174655441 18.06914701982013 6.351193873110559 0 0 0
123 2 2 -0.106 6.140024410282289 18.17298017513162 6.1505714076916576 0 0 0
124 2 4 0.053 6.319782816900891 17.652338984292314 7.137520666798647 0 0 0
125 2 1 0.106 4.827984427894976 17.568452854956142 5.488652196888105 0 0 0
126 2 4 0.053 4.96124965101066 17.856180177460708 4.475856743121623 0 0 0
129 2 4 0.053 6.050774442583212 19.237759362478748 6.334055961381248 0 0 0
239 10 3 0.271 4.926208378922226 21.944522643514986 7.031955253419816 0 0 0
240 10 5 -0.43 4.909499627456553 21.1434417960768 6.20945321401701 0 0 0
771 2 2 -0.106 3.5754730299221227 18.08239166035618 6.20811599609593 0 0 0
772 2 4 0.053 3.6012724135421545 17.56839347923966 7.170331393192594 0 0 0
773 2 1 0.106 2.226429083910473 17.689244315922416 5.538229648661352 0 0 0
774 2 4 0.053 2.2684220226611016 16.615981090489463 5.218605143953137 0 0 0
775 2 3 0.271 2.210659313403762 18.452135596980057 4.222354070707121 0 0 0
776 2 5 -0.43 2.137624344509958 18.99176192918759 3.2474534608503953 0 0 0
777 2 4 0.053 3.6327183502468317 19.10295162905733 6.476439905853889 0 0 0
1025 2 1 0.106 7.43067939820809 18.143537547094915 5.3035522140461815 0 0 0
1026 2 4 0.053 7.656453516696888 17.098699693295202 5.003349153408438 0 0 0
1027 2 3 0.271 7.154263891293196 19.065032042091303 4.135612384487752 0 0 0
1028 2 5 -0.43 6.948944545482457 19.827242294805515 3.2832499458571345 0 0 0
154 4 4 0.053 6.201472055968478 21.659076192402125 3.290444032871588 0 0 0
1804 32 4 0.053 6.4068147893318255 17.79395830745394 1.6681743607834374 0 0 1
237 10 1 0.106 4.941823451977177 22.920921464302914 8.085867184643751 0 0 0
153 4 1 0.106 5.668215744372883 22.63079521185366 3.280932236293532 0 0 0
2452 32 4 0.053 3.7107341480077114 17.65370548256358 1.7225981218573634 0 0 1
1053 4 1 0.106 7.859619270513775 23.106817323920914 1.774801694083051 0 0 0
19 4 2 -0.106 1.7144438399705506 22.52122956620677 2.8297154645986695 0 0 0
800 4 4 0.053 4.014359842486851 21.452098503632207 2.3314560014033834 0 0 0
799 4 2 -0.106 4.233156706502262 22.18114397783758 3.213089367261601 0 0 0
21 4 4 0.053 1.5482151409798415 21.770816092880743 3.666239038008157 0 0 0
805 4 4 0.053 3.9373711070513 21.618952760432457 4.243839820650141 0 0 0
1138 10 4 0.053 7.552638658789694 22.893801708163224 7.263066334702279 0 0 0
8 2 4 0.053 1.1307537826835476 17.63637960498493 7.326857977273514 0 0 0
801 4 1 0.106 3.084958816544331 23.32787056685892 3.137370732835665 0 0 0
1592 32 4 0.053 1.1471586283392652 17.66778939650512 1.7323098538369373 0 0 1
886 10 4 0.053 2.4233668492267824 22.945915554499308 7.0154024586367765 0 0 0
1054 4 4 0.053 7.928552362524374 22.155951099152887 1.3499588225191186 0 0 0
9 2 4 0.053 1.1595046752919584 19.13359198730867 6.598056161281675 0 0 0
1112 8 5 -0.43 7.498145366158238 19.718889194066264 8.621680621557815 0 0 0
885 10 1 0.106 2.4398508617905073 23.226461958151745 8.056672815124507 0 0 0
1137 10 1 0.106 7.517157505451097 23.226140320796347 8.32459991296758 0 0 0
860 8 5 -0.43 2.3663187542061235 19.517922837112607 8.758027870906133 0 0 0
157 4 4 0.053 5.744831654183756 23.068219124078624 1.0221172746159672 0 0 0
151 4 2 -0.106 6.284510478549855 23.351103275211457 2.0920101966276716 0 0 0
155 4 3 0.271 5.941495843409534 23.330143811807616 4.581269788851381 0 0 0
55 10 2 -0.106 1.094227537386233 22.76010728450148 8.632565562410896 0 0 0
56 10 4 0.053 1.2057453675109846 21.605987593507045 8.92045278659809 0 0 0
883 10 2 -0.106 3.6415316440516925 22.780502981816994 8.865836930638041 0 0 0
235 10 2 -0.106 6.1892723778039445 22.716247726347653 9.01694295965064 0 0 0
1809 32 4 0.053 6.185882584435077 19.342931338864943 0.8843170797192079 0 0 1
2457 32 4 0.053 3.590124956170642 19.133528125713205 0.8903402856677372 0 0 1
1593 32 4 0.053 1.183980127650814 19.09955876862894 0.835213790032677 0 0 1
1322 5 5 -0.43 12.545143069716882 16.062106953883706 2.8603581586474283 0 0 0
1406 11 5 -0.43 12.438471843764287 15.986778231603298 8.455903602261426 0 0 0
623 2 3 0.271 15.237649197125451 16.470602018247906 5.622511665021953 0 0 0
1052 4 4 0.053 8.301443133040888 22.67756817613607 3.893503991288612 0 0 0
688 10 5 -0.43 15.441155547754505 21.402889590924794 6.057662197633058 0 0 0
2704 32 4 0.053 8.946600697559889 17.92460000695869 1.7391810696805834 0 0 1
379 2 3 0.271 10.20528033612524 16.41178621239348 5.604977414994589 0 0 0
1051 4 2 -0.106 8.896352187815877 23.169316912410466 2.9505052413697914 0 0 0
687 10 3 0.271 15.339831128514229 22.092387258784015 6.979038902335556 0 0 0
1024 2 4 0.053 8.685439932889386 17.984696129905956 7.089764322817399 0 0 0
1029 2 4 0.053 8.892098259788183 19.502200652886103 6.363422152123387 0 0 0
375 2 2 -0.106 11.388565629477773 18.412468528689054 6.1287670681372335 0 0 0
376 2 4 0.053 11.519557250948916 17.715947782732506 6.9897377834931556 0 0 0
377 2 1 0.106 10.117736212726191 17.81535778670083 5.475470940368469 0 0 0
378 2 4 0.053 10.052108607132677 18.062418719694627 4.429897368412384 0 0 0
381 2 4 0.053 11.21114842230166 19.462664734228404 6.472405618158015 0 0 0
405 4 1 0.106 10.331061562884367 22.61403334095261 2.737062760895455 0 0 0
407 4 3 0.271 10.199288800331658 21.11999986657247 2.703474055931859 0 0 0
408 4 5 -0.43 10.08741343798505 19.93305557582657 2.8141022050459816 0 0 0
621 2 1 0.106 15.18253853569796 17.904602035881332 5.661752334184451 0 0 0
622 2 4 0.053 15.172759093963084 18.295684634325184 4.624817745273843 0 0 0
1023 2 2 -0.106 8.737628269162258 18.383393385308764 6.079575695697658 0 0 0
1275 2 2 -0.106 13.87370753920895 18.40364251008772 6.261388360623689 0 0 0
1276 2 4 0.053 13.599411945095131 17.7134482963841 7.118945321093315 0 0 0
1277 2 1 0.106 12.715169739152236 18.268784666110363 5.331793747867758 0 0 0
1278 2 4 0.053 12.669592465678706 17.21848111796382 4.969596732881856 0 0 0
1279 2 3 0.271 12.885976321326702 19.222849847133006 4.272635456462343 0 0 0
1280 2 5 -0.43 13.144513913954222 19.901723559359006 3.382044514077821 0 0 0
1281 2 4 0.053 14.028367470729512 19.46360320776926 6.560063265717887 0 0 0
2956 32 4 0.053 13.855900105666231 17.83646735948402 1.7861633858955601 0 0 1
2056 32 4 0.053 11.524556859951801 17.966882337436587 1.6471523688874203 0 0 1
406 4 4 0.053 10.859635059259734 22.89640344260245 1.7392122004193724 0 0 0
404 4 4 0.053 11.691292904819088 21.73686378110498 4.288868077976881 0 0 0
1304 4 4 0.053 13.990767571822456 21.91829599141498 3.4773571748982945 0 0 0
1303 4 2 -0.106 14.153959908299658 22.916105324584038 3.660254969236985 0 0 0
403 4 2 -0.106 11.498527567939465 22.788120633116485 3.8516101262442612 0 0 0
685 10 1 0.106 15.33103381256149 22.96506457770247 8.160825362185454 0 0 0
1390 10 4 0.053 12.812920480188737 23.336578601760245 7.219338921849522 0 0 0
492 10 5 -0.43 10.294327539183957 21.754907723940235 6.25356501646809 0 0 0
491 10 3 0.271 10.237561098433309 22.43915862726081 7.181608795013559 0 0 0
489 10 1 0.106 10.100596503056332 23.240707623923726 8.223541358603388 0 0 0
1306 4 4 0.053 12.751458880941334 23.028051616874805 2.2201559904022243 0 0 0
1309 4 4 0.053 14.415599820314771 22.911998962956048 4.616593478272664 0 0 0
1364 8 5 -0.43 12.898270537670177 19.560176335479873 8.72557015232989 0 0 0
1387 10 2 -0.106 14.011448789006314 22.89233463758923 8.990068131502232 0 0 0
637 4 1 0.106 15.354011603713326 23.460221698736177 2.8647344616779917 0 0 0
487 10 2 -0.106 11.428951476568166 23.088445822758963 9.045759809053212 0 0 0
1135 10 2 -0.106 8.841944856274083 22.793349563856246 8.965949084051907 0 0 0
2061 32 4 0.053 11.273604924850366 19.53608361751109 0.8516604871208585 0 0 1
639 4 3 0.271 15.329745557674226 23.389102899525632 1.4568188283559858 0 0 0
409 4 4 0.053 11.085764826296396 23.33395949950536 4.6610008985071065 0 0 0
1136 10 4 0.053 8.742495817411793 21.701489723509738 9.047178445886201 0 0 0
2961 32 4 0.053 14.20175162947289 19.383394758285554 0.9539609770518717 0 0 1
2955 32 2 -0.106 13.970902258242957 18.335725191704704 0.8401722499354743 0 0 1
802 4 4 0.053 3.1704336434536744 24.035087216735455 2.320560940238347 0 0 0
69 12 4 0.053 0.8220664445859353 28.95261607607035 6.60029327696281 0 0 0
828 6 4 0.053 3.436691172837853 27.57094854230082 1.670023664368451 0 0 0
803 4 3 0.271 2.923337975233874 23.928710149217423 4.371403626406542 0 0 0
156 4 5 -0.43 6.193155691851068 23.869368639457022 5.609657297382043 0 0 0
152 4 4 0.053 6.117870374795804 24.490350872834235 2.1601328174684555 0 0 0
238 10 4 0.053 4.983657040116924 23.925045198418474 7.60247975654976 0 0 0
265 12 1 0.106 4.791241233075224 28.015444046091027 5.343557548654718 0 0 0
266 12 4 0.053 4.656020244089892 29.082321927688653 4.763672624234718 0 0 0
267 12 3 0.271 5.17198780961497 26.973693181877117 4.441089592266099 0 0 0
268 12 5 -0.43 5.524189155256579 26.198813143842543 3.6712321227275693 0 0 0
913 12 1 0.106 2.259272448827974 27.841842684459763 5.2843255853446305 0 0 0
914 12 4 0.053 2.265954065336471 26.94528818664682 4.7293727191529165 0 0 0
915 12 3 0.271 2.304818987643949 28.79899836570325 4.19276789323569 0 0 0
916 12 5 -0.43 2.348347897097425 29.62360162957382 3.243700931973685 0 0 0
1165 12 1 0.106 7.392707363077777 28.22380916129707 5.499319398082675 0 0 0
1166 12 4 0.053 7.448888170814496 27.19713602729535 4.950880690542916 0 0 0
1167 12 3 0.271 7.255090608953694 28.986043193690143 4.436627430480515 0 0 0
263 12 2 -0.106 5.978591743134154 28.312111198459824 6.333116823223189 0 0 0
911 12 2 -0.106 3.468024670576933 27.88570196912444 6.167934295841689 0 0 0
264 12 4 0.053 5.924323162092535 27.429348008854546 7.045292967993836 0 0 0
269 12 4 0.053 5.808516801021938 29.235261914058853 6.8400872956213545 0 0 0
912 12 4 0.053 3.535691700654003 26.95808190006315 6.748108608267065 0 0 0
917 12 4 0.053 3.431370213745508 28.67045274572819 6.963090606121428 0 0 0
1139 10 3 0.271 7.437457958208197 24.628089122599192 8.350578159796264 0 0 0
804 4 5 -0.43 2.9115506183848403 24.345132193020653 5.4291495237525345 0 0 0
887 10 3 0.271 2.4215228145531604 24.733007643113204 8.164789589448798 0 0 0
67 12 2 -0.106 0.77559600589696 28.04127722095184 6.001398287907836 0 0 0
888 10 5 -0.43 2.4175177516907373 25.83120570485918 8.303807008550056 0 0 0
1168 12 5 -0.43 7.156537356823039 29.665811886629783 3.475362901239519 0 0 0
1000 18 5 -0.43 2.0936174023572436 29.957775179079512 8.824570879828329 0 0 0
180 6 4 0.053 6.032864008628719 27.500845153877123 1.7180077450858935 0 0 0
1140 10 5 -0.43 7.384852111406307 25.832451424074 8.341992347820485 0 0 0
1252 18 5 -0.43 7.530672013719759 29.292273851353436 9.033924578041757 0 0 0
32 6 4 0.053 0.9556817561830917 27.212755801617433 1.0480355785186468 0 0 0
1055 4 3 0.271 8.291034588485857 24.106665234800623 0.8405809896546603 0 0 0
1305 4 1 0.106 12.710662818617326 23.532446276955547 3.181975925197251 0 0 0
1389 10 1 0.106 12.787397111275101 23.518373487727168 8.337011031265622 0 0 0
1337 6 4 0.053 13.870824158783096 29.180963566637395 1.086448305487436 0 0 0