LAMMPS data file via write_data, version 27 Jun 2024, timestep = 1000000, units = real

1512 atoms
7 atom types
1584 bonds
11 bond types
2952 angles
23 angle types
4752 dihedrals
39 dihedral types
1728 impropers
17 improper types

-2.598978692467602 19.720253892468904 xlo xhi
-2.122907368411129 22.491581173410456 ylo yhi
-0.12634958028793797 20.96721580628808 zlo zhi
-2.826227929493382 0 0 xy xz yz

Atom Type Labels

1 c1
2 c2
3 coh
4 hc
5 ho
6 oc
7 oh

Bond Type Labels

1 c1-c1
2 c1-c2
3 c1-coh
4 c1-hc
5 c1-oc
6 c1-oh
7 c2-hc
8 c2-oh
9 coh-hc
10 coh-oc
11 ho-oh

Angle Type Labels

1 c1-c1-c1
2 c1-c1-c2
3 c1-c1-coh
4 c1-c1-hc
5 c1-c1-oc
6 c1-c1-oh
7 c1-c2-hc
8 c1-c2-oh
9 c1-coh-hc
10 c1-coh-oc
11 c1-oc-coh
12 c1-oh-ho
13 c2-c1-hc
14 c2-c1-oc
15 c2-oh-ho
16 coh-c1-hc
17 coh-c1-oh
18 hc-c1-oc
19 hc-c1-oh
20 hc-c2-hc
21 hc-c2-oh
22 hc-coh-oc
23 oc-coh-oc

Dihedral Type Labels

1 c1-c1-c1-c1
2 c1-c1-c1-c2
3 c1-c1-c1-coh
4 hc-c1-c1-hc
5 c1-c1-c1-hc
6 c2-c1-c1-hc
7 coh-c1-c1-hc
8 c1-c1-c1-oc
9 c2-c1-c1-oc
10 oc-c1-c1-oc
11 hc-c1-c1-oc
12 coh-c1-c1-oh
13 oc-c1-c1-oh
14 c1-c1-c1-oh
15 hc-c1-c1-oh
16 oh-c1-c1-oh
17 hc-c1-c2-hc
18 c1-c1-c2-hc
19 oc-c1-c2-oh
20 c1-c1-c2-oh
21 hc-c1-c2-oh
22 hc-c1-coh-hc
23 c1-c1-coh-hc
24 c1-c1-coh-oc
25 hc-c1-coh-oc
26 c2-c1-oc-coh
27 c1-c1-oc-coh
28 c1-c1-oh-ho
29 hc-c1-oh-ho
30 coh-c1-oh-ho
31 hc-c2-c1-oc
32 c1-c2-oh-ho
33 hc-c2-oh-ho
34 oc-coh-c1-oh
35 hc-coh-c1-oh
36 c1-coh-oc-c1
37 hc-c1-oc-coh
38 hc-coh-oc-c1
39 oc-coh-oc-c1

Improper Type Labels

1 c1-c1-c1-hc-nb!=3
2 c1-c1-c1-oc-nb!=3
3 c1-c1-c1-oh-nb!=3
4 c1-c1-c2-hc-nb!=3
5 c1-c1-c2-oc-nb!=3
6 c1-c1-coh-hc-nb!=3
7 c1-c1-coh-oh-nb!=3
8 c1-c1-hc-oc-nb!=3
9 c1-c1-hc-oh-nb!=3
10 c1-c2-hc-hc-nb!=3
11 c1-c2-hc-oh-nb!=3
12 c1-coh-hc-oc-nb!=3
13 c1-coh-oc-oc-nb!=3
14 c2-c1-hc-oc-nb!=3
15 coh-c1-hc-oh-nb!=3
16 hc-c2-hc-oh-nb!=3
17 hc-coh-oc-oc-nb!=3

Masses

1 12.01115
2 12.01115
3 12.01115
4 1.00797
5 1.00797
6 15.9994
7 15.9994

Pair Coeffs # lj/class2/coul/long

1 0.054 4.01
2 0.054 4.01
3 0.054 4.01
4 0.02 2.3
5 0.013 1.098
6 0.24 3.535
7 0.24 3.535

Bond Coeffs # class2

1 1.53 299.67 -501.77 679.81
2 1.53 299.67 -501.77 679.81
3 1.53 299.67 -501.77 679.81
4 1.101 345 -691.89 844.6
5 1.42 400.395 -835.195 1313.01
6 1.42 400.395 -835.195 1313.01
7 1.101 345 -691.89 844.6
8 1.42 400.395 -835.195 1313.01
9 1.101 345 -691.89 844.6
10 1.42 400.395 -835.195 1313.01
11 0.965 532.506 -1282.9 2004.77

Angle Coeffs # class2

1 112.67 39.516 -7.443 -9.5583
2 112.67 39.516 -7.443 -9.5583
3 112.67 39.516 -7.443 -9.5583
4 110.77 41.453 -10.604 5.129
5 111.27 54.5381 -8.3642 -13.0838
6 111.27 54.5381 -8.3642 -13.0838
7 110.77 41.453 -10.604 5.129
8 111.27 54.5381 -8.3642 -13.0838
9 110.77 41.453 -10.604 5.129
10 111.27 54.5381 -8.3642 -13.0838
11 104.5 35.7454 -10.0067 -6.2729
12 105.8 52.7061 -12.109 -9.8681
13 110.77 41.453 -10.604 5.129
14 111.27 54.5381 -8.3642 -13.0838
15 105.8 52.7061 -12.109 -9.8681
16 110.77 41.453 -10.604 5.129
17 111.27 54.5381 -8.3642 -13.0838
18 108.728 58.5446 -10.8088 -12.4006
19 108.728 58.5446 -10.8088 -12.4006
20 107.66 39.641 -12.921 -2.4318
21 108.728 58.5446 -10.8088 -12.4006
22 108.728 58.5446 -10.8088 -12.4006
23 109.5 70 0 0

BondBond Coeffs

1 0 1.53 1.53
2 0 1.53 1.53
3 0 1.53 1.53
4 3.3872 1.53 1.101
5 11.4318 1.53 1.42
6 11.4318 1.53 1.42
7 3.3872 1.53 1.101
8 11.4318 1.53 1.42
9 3.3872 1.53 1.101
10 11.4318 1.53 1.42
11 -7.1131 1.42 1.42
12 -9.6879 1.42 0.965
13 3.3872 1.53 1.101
14 11.4318 1.53 1.42
15 -9.6879 1.42 0.965
16 3.3872 1.53 1.101
17 11.4318 1.53 1.42
18 23.1979 1.101 1.42
19 23.1979 1.101 1.42
20 5.3316 1.101 1.101
21 23.1979 1.101 1.42
22 23.1979 1.101 1.42
23 0 1.42 1.42

BondAngle Coeffs

1 8.016 8.016 1.53 1.53
2 8.016 8.016 1.53 1.53
3 8.016 8.016 1.53 1.53
4 20.754 11.421 1.53 1.101
5 2.6868 20.4033 1.53 1.42
6 2.6868 20.4033 1.53 1.42
7 20.754 11.421 1.53 1.101
8 2.6868 20.4033 1.53 1.42
9 20.754 11.421 1.53 1.101
10 2.6868 20.4033 1.53 1.42
11 -2.8112 -2.8112 1.42 1.42
12 28.58 18.9277 1.42 0.965
13 20.754 11.421 1.53 1.101
14 2.6868 20.4033 1.53 1.42
15 28.58 18.9277 1.42 0.965
16 20.754 11.421 1.53 1.101
17 2.6868 20.4033 1.53 1.42
18 4.6189 55.327 1.101 1.42
19 4.6189 55.327 1.101 1.42
20 18.103 18.103 1.101 1.101
21 4.6189 55.327 1.101 1.42
22 4.6189 55.327 1.101 1.42
23 0 0 1.42 1.42

Dihedral Coeffs # class2

1 0 0 0.0514 0 -0.143 0
2 0 0 0.0514 0 -0.143 0
3 0 0 0.0514 0 -0.143 0
4 -0.1432 0 0.0617 0 -0.1083 0
5 0 0 0.0316 0 -0.1681 0
6 0 0 0.0316 0 -0.1681 0
7 0 0 0.0316 0 -0.1681 0
8 0.7137 0 0.266 0 -0.2545 0
9 0.7137 0 0.266 0 -0.2545 0
10 -0.182 0 -0.1084 0 -0.7047 0
11 -0.1435 0 0.253 0 -0.0905 0
12 0.7137 0 0.266 0 -0.2545 0
13 -0.182 0 -0.1084 0 -0.7047 0
14 0.7137 0 0.266 0 -0.2545 0
15 -0.1435 0 0.253 0 -0.0905 0
16 -0.182 0 -0.1084 0 -0.7047 0
17 -0.1432 0 0.0617 0 -0.1083 0
18 0 0 0.0316 0 -0.1681 0
19 -0.182 0 -0.1084 0 -0.7047 0
20 0.7137 0 0.266 0 -0.2545 0
21 -0.1435 0 0.253 0 -0.0905 0
22 -0.1432 0 0.0617 0 -0.1083 0
23 0 0 0.0316 0 -0.1681 0
24 0.7137 0 0.266 0 -0.2545 0
25 -0.1435 0 0.253 0 -0.0905 0
26 -0.5203 0 -0.3028 0 -0.345 0
27 -0.5203 0 -0.3028 0 -0.345 0
28 -0.6732 0 -0.4778 0 -0.167 0
29 0.1863 0 -0.4338 0 -0.2121 0
30 -0.6732 0 -0.4778 0 -0.167 0
31 -0.1435 0 0.253 0 -0.0905 0
32 -0.6732 0 -0.4778 0 -0.167 0
33 0.1863 0 -0.4338 0 -0.2121 0
34 -0.182 0 -0.1084 0 -0.7047 0
35 -0.1435 0 0.253 0 -0.0905 0
36 -0.5203 0 -0.3028 0 -0.345 0
37 0.5302 0 0 0 -0.3966 0
38 0.5302 0 0 0 -0.3966 0
39 0 0 0 0 0.13 0

AngleAngleTorsion Coeffs

1 -22.045 112.67 112.67
2 -22.045 112.67 112.67
3 -22.045 112.67 112.67
4 -12.564 110.77 110.77
5 -16.164 112.67 110.77
6 -16.164 112.67 110.77
7 -16.164 112.67 110.77
8 -29.042 112.67 111.27
9 -29.042 112.67 111.27
10 -14.0484 111.27 111.27
11 -20.2006 110.77 111.27
12 -29.042 112.67 111.27
13 -14.0484 111.27 111.27
14 -29.042 112.67 111.27
15 -20.2006 110.77 111.27
16 -14.0484 111.27 111.27
17 -12.564 110.77 110.77
18 -16.164 112.67 110.77
19 -14.0484 111.27 111.27
20 -29.042 112.67 111.27
21 -20.2006 110.77 111.27
22 -12.564 110.77 110.77
23 -16.164 112.67 110.77
24 -29.042 112.67 111.27
25 -20.2006 110.77 111.27
26 -19.0059 111.27 104.5
27 -19.0059 111.27 104.5
28 -12.1038 111.27 105.8
29 -10.5093 108.728 105.8
30 -12.1038 111.27 105.8
31 -20.2006 110.77 111.27
32 -12.1038 111.27 105.8
33 -10.5093 108.728 105.8
34 -14.0484 111.27 111.27
35 -20.2006 110.77 111.27
36 -19.0059 111.27 104.5
37 -16.4438 108.728 104.5
38 -16.4438 108.728 104.5
39 0 109.5 104.5

EndBondTorsion Coeffs

1 -0.0732 0 0 -0.0732 0 0 1.53 1.53
2 -0.0732 0 0 -0.0732 0 0 1.53 1.53
3 -0.0732 0 0 -0.0732 0 0 1.53 1.53
4 0.213 0.312 0.0777 0.213 0.312 0.0777 1.101 1.101
5 0.2486 0.2422 -0.0925 0.0814 0.0591 0.2219 1.53 1.101
6 0.2486 0.2422 -0.0925 0.0814 0.0591 0.2219 1.53 1.101
7 0.2486 0.2422 -0.0925 0.0814 0.0591 0.2219 1.53 1.101
8 -0.319 0.4411 -0.7174 1.1538 0.8409 -0.9138 1.53 1.42
9 -0.319 0.4411 -0.7174 1.1538 0.8409 -0.9138 1.53 1.42
10 1.0165 0.7553 -0.4609 1.0165 0.7553 -0.4609 1.42 1.42
11 0.9681 0.9551 0.0436 0.5903 0.6669 0.8584 1.101 1.42
12 -0.319 0.4411 -0.7174 1.1538 0.8409 -0.9138 1.53 1.42
13 1.0165 0.7553 -0.4609 1.0165 0.7553 -0.4609 1.42 1.42
14 -0.319 0.4411 -0.7174 1.1538 0.8409 -0.9138 1.53 1.42
15 0.9681 0.9551 0.0436 0.5903 0.6669 0.8584 1.101 1.42
16 1.0165 0.7553 -0.4609 1.0165 0.7553 -0.4609 1.42 1.42
17 0.213 0.312 0.0777 0.213 0.312 0.0777 1.101 1.101
18 0.2486 0.2422 -0.0925 0.0814 0.0591 0.2219 1.53 1.101
19 1.0165 0.7553 -0.4609 1.0165 0.7553 -0.4609 1.42 1.42
20 -0.319 0.4411 -0.7174 1.1538 0.8409 -0.9138 1.53 1.42
21 0.9681 0.9551 0.0436 0.5903 0.6669 0.8584 1.101 1.42
22 0.213 0.312 0.0777 0.213 0.312 0.0777 1.101 1.101
23 0.2486 0.2422 -0.0925 0.0814 0.0591 0.2219 1.53 1.101
24 -0.319 0.4411 -0.7174 1.1538 0.8409 -0.9138 1.53 1.42
25 0.9681 0.9551 0.0436 0.5903 0.6669 0.8584 1.101 1.42
26 -0.2456 1.0517 -0.7795 0.4741 1.2635 0.5576 1.53 1.42
27 -0.2456 1.0517 -0.7795 0.4741 1.2635 0.5576 1.53 1.42
28 -0.58 0.9004 0 0 0.5343 0.9025 1.53 0.965
29 -1.7554 1.3145 0.2263 0.2493 0.6803 0 1.101 0.965
30 -0.58 0.9004 0 0 0.5343 0.9025 1.53 0.965
31 0.9681 0.9551 0.0436 0.5903 0.6669 0.8584 1.101 1.42
32 -0.58 0.9004 0 0 0.5343 0.9025 1.53 0.965
33 -1.7554 1.3145 0.2263 0.2493 0.6803 0 1.101 0.965
34 1.0165 0.7553 -0.4609 1.0165 0.7553 -0.4609 1.42 1.42
35 0.9681 0.9551 0.0436 0.5903 0.6669 0.8584 1.101 1.42
36 -0.2456 1.0517 -0.7795 0.4741 1.2635 0.5576 1.53 1.42
37 -0.6054 1.3339 0.9648 -0.162 0.1564 -1.1408 1.101 1.42
38 -0.6054 1.3339 0.9648 -0.162 0.1564 -1.1408 1.101 1.42
39 0 0 0 0 0 0 1.42 1.42

MiddleBondTorsion Coeffs

1 -17.787 -7.1877 0 1.53
2 -17.787 -7.1877 0 1.53
3 -17.787 -7.1877 0 1.53
4 -14.261 -0.5322 -0.4864 1.53
5 -14.879 -3.6581 -0.3138 1.53
6 -14.879 -3.6581 -0.3138 1.53
7 -14.879 -3.6581 -0.3138 1.53
8 -21.8842 -7.6764 -0.6868 1.53
9 -21.8842 -7.6764 -0.6868 1.53
10 -17.2585 -3.6157 -0.8364 1.53
11 -16.7975 -1.2296 -0.275 1.53
12 -21.8842 -7.6764 -0.6868 1.53
13 -17.2585 -3.6157 -0.8364 1.53
14 -21.8842 -7.6764 -0.6868 1.53
15 -16.7975 -1.2296 -0.275 1.53
16 -17.2585 -3.6157 -0.8364 1.53
17 -14.261 -0.5322 -0.4864 1.53
18 -14.879 -3.6581 -0.3138 1.53
19 -17.2585 -3.6157 -0.8364 1.53
20 -21.8842 -7.6764 -0.6868 1.53
21 -16.7975 -1.2296 -0.275 1.53
22 -14.261 -0.5322 -0.4864 1.53
23 -14.879 -3.6581 -0.3138 1.53
24 -21.8842 -7.6764 -0.6868 1.53
25 -16.7975 -1.2296 -0.275 1.53
26 -5.9288 -2.7007 -0.3175 1.42
27 -5.9288 -2.7007 -0.3175 1.42
28 1.2472 0 0.7485 1.42
29 0 0.9241 -0.5889 1.42
30 1.2472 0 0.7485 1.42
31 -16.7975 -1.2296 -0.275 1.53
32 1.2472 0 0.7485 1.42
33 0 0.9241 -0.5889 1.42
34 -17.2585 -3.6157 -0.8364 1.53
35 -16.7975 -1.2296 -0.275 1.53
36 -5.9288 -2.7007 -0.3175 1.42
37 -6.8007 -4.6546 -1.4101 1.42
38 -6.8007 -4.6546 -1.4101 1.42
39 0 0 0 1.42

BondBond13 Coeffs

1 0 1.53 1.53
2 0 1.53 1.53
3 0 1.53 1.53
4 0 1.101 1.101
5 0 1.53 1.101
6 0 1.53 1.101
7 0 1.53 1.101
8 0 1.53 1.42
9 0 1.53 1.42
10 0 1.42 1.42
11 0 1.101 1.42
12 0 1.53 1.42
13 0 1.42 1.42
14 0 1.53 1.42
15 0 1.101 1.42
16 0 1.42 1.42
17 0 1.101 1.101
18 0 1.53 1.101
19 0 1.42 1.42
20 0 1.53 1.42
21 0 1.101 1.42
22 0 1.101 1.101
23 0 1.53 1.101
24 0 1.53 1.42
25 0 1.101 1.42
26 0 1.53 1.42
27 0 1.53 1.42
28 0 1.53 0.965
29 0 1.101 0.965
30 0 1.53 0.965
31 0 1.101 1.42
32 0 1.53 0.965
33 0 1.101 0.965
34 0 1.42 1.42
35 0 1.101 1.42
36 0 1.53 1.42
37 0 1.101 1.42
38 0 1.101 1.42
39 0 1.42 1.42

AngleTorsion Coeffs

1 0.3886 -0.3139 0.1389 0.3886 -0.3139 0.1389 112.67 112.67
2 0.3886 -0.3139 0.1389 0.3886 -0.3139 0.1389 112.67 112.67
3 0.3886 -0.3139 0.1389 0.3886 -0.3139 0.1389 112.67 112.67
4 -0.8085 0.5569 -0.2466 -0.8085 0.5569 -0.2466 110.77 110.77
5 -0.2454 0 -0.1136 0.3113 0.4516 -0.1988 112.67 110.77
6 -0.2454 0 -0.1136 0.3113 0.4516 -0.1988 112.67 110.77
7 -0.2454 0 -0.1136 0.3113 0.4516 -0.1988 112.67 110.77
8 0.5623 -0.3041 -0.4015 0.9672 -0.7566 -1.2331 112.67 111.27
9 0.5623 -0.3041 -0.4015 0.9672 -0.7566 -1.2331 112.67 111.27
10 0.5511 0.9737 -0.6673 0.5511 0.9737 -0.6673 111.27 111.27
11 2.3668 2.492 -1.0122 -0.1892 0.4918 0.7273 110.77 111.27
12 0.5623 -0.3041 -0.4015 0.9672 -0.7566 -1.2331 112.67 111.27
13 0.5511 0.9737 -0.6673 0.5511 0.9737 -0.6673 111.27 111.27
14 0.5623 -0.3041 -0.4015 0.9672 -0.7566 -1.2331 112.67 111.27
15 2.3668 2.492 -1.0122 -0.1892 0.4918 0.7273 110.77 111.27
16 0.5511 0.9737 -0.6673 0.5511 0.9737 -0.6673 111.27 111.27
17 -0.8085 0.5569 -0.2466 -0.8085 0.5569 -0.2466 110.77 110.77
18 -0.2454 0 -0.1136 0.3113 0.4516 -0.1988 112.67 110.77
19 0.5511 0.9737 -0.6673 0.5511 0.9737 -0.6673 111.27 111.27
20 0.5623 -0.3041 -0.4015 0.9672 -0.7566 -1.2331 112.67 111.27
21 2.3668 2.492 -1.0122 -0.1892 0.4918 0.7273 110.77 111.27
22 -0.8085 0.5569 -0.2466 -0.8085 0.5569 -0.2466 110.77 110.77
23 -0.2454 0 -0.1136 0.3113 0.4516 -0.1988 112.67 110.77
24 0.5623 -0.3041 -0.4015 0.9672 -0.7566 -1.2331 112.67 111.27
25 2.3668 2.492 -1.0122 -0.1892 0.4918 0.7273 110.77 111.27
26 -2.7466 1.4877 -0.8955 0.5676 0.945 0.0703 111.27 104.5
27 -2.7466 1.4877 -0.8955 0.5676 0.945 0.0703 111.27 104.5
28 -3.5903 2.5225 0.4888 0.8726 -0.3577 0.3888 111.27 105.8
29 -3.406 1.6396 0.0737 0 -0.281 -0.5944 108.728 105.8
30 -3.5903 2.5225 0.4888 0.8726 -0.3577 0.3888 111.27 105.8
31 2.3668 2.492 -1.0122 -0.1892 0.4918 0.7273 110.77 111.27
32 -3.5903 2.5225 0.4888 0.8726 -0.3577 0.3888 111.27 105.8
33 -3.406 1.6396 0.0737 0 -0.281 -0.5944 108.728 105.8
34 0.5511 0.9737 -0.6673 0.5511 0.9737 -0.6673 111.27 111.27
35 2.3668 2.492 -1.0122 -0.1892 0.4918 0.7273 110.77 111.27
36 -2.7466 1.4877 -0.8955 0.5676 0.945 0.0703 111.27 104.5
37 -1.8234 1.6393 0.5144 -0.7777 0.434 -0.6653 108.728 104.5
38 -1.8234 1.6393 0.5144 -0.7777 0.434 -0.6653 108.728 104.5
39 0 0 0 0 0 0 109.5 104.5

Improper Coeffs # class2

1 0 0
2 0 0
3 0 0
4 0 0
5 0 0
6 0 0
7 0 0
8 0 0
9 0 0
10 0 0
11 0 0
12 0 0
13 0 0
14 0 0
15 0 0
16 0 0
17 0 0

AngleAngle Coeffs

1 -1.3199 -1.3199 0.1184 112.67 110.77 110.77
2 -0.833 -0.833 -3.5744 112.67 111.27 111.27
3 -0.833 -0.833 -3.5744 112.67 111.27 111.27
4 -1.3199 -1.3199 0.1184 112.67 110.77 110.77
5 -0.833 -0.833 -3.5744 112.67 111.27 111.27
6 -1.3199 -1.3199 0.1184 112.67 110.77 110.77
7 -0.833 -0.833 -3.5744 112.67 111.27 111.27
8 3.9177 2.5926 0.1689 110.77 111.27 108.728
9 3.9177 2.5926 0.1689 110.77 111.27 108.728
10 0.2738 -0.4825 0.2738 110.77 110.77 107.66
11 3.9177 2.5926 0.1689 110.77 111.27 108.728
12 3.9177 2.5926 0.1689 110.77 111.27 108.728
13 0 0 0 111.27 109.5 111.27
14 3.9177 2.5926 0.1689 110.77 111.27 108.728
15 3.9177 2.5926 0.1689 110.77 111.27 108.728
16 2.4259 2.4259 2.1283 107.66 108.728 108.728
17 0 0 0 108.728 109.5 108.728

Atoms # full

1 1 3 0.243 0.5323948384776038 -0.258626240523379 0.2541485857900263 0 0 0
2 1 4 0.063 1.5266840248553626 0.1481872871649612 0.4112649533568453 0 0 0
22 2 4 0.063 2.51111534866941 2.358630638755484 1.869484327051656 0 0 0
38 1 5 0.424 0.01411962886610807 2.8993153003767915 6.0091106304741135 0 0 0
39 1 5 0.424 -0.32629692578459757 1.8704153729507862 1.5725497445950456 0 0 0
43 1 3 0.243 0.019555287497346363 0.43056281656541895 5.608136770714138 0 0 0
44 1 4 0.063 -1.0776035158233055 0.5401371580788488 5.6543979755617775 0 0 0
45 1 1 0.213 0.38153399400367505 1.5606873611619232 4.653615995577823 0 0 0
46 1 4 0.063 1.447558307529789 1.6846017266198157 4.762225818470188 0 0 0
47 1 1 0.213 -0.10995009059782435 1.1235314212689622 3.2779879002493497 0 0 0
48 1 4 0.063 -1.1881650735992255 0.9503432585265492 3.2528539495935855 0 0 0
49 1 1 0.213 0.5413680603203246 -0.14370799811843105 2.8144755709375104 0 0 0
50 1 4 0.063 1.6005588413842755 -0.07573755486991063 2.6693850776865284 0 0 0
51 1 1 0.213 0.20235346289943523 -1.2458991431899764 3.715705181343096 0 0 0
56 1 7 -0.68 -0.1596291109020216 2.8285879846802633 5.0459058040903315 0 0 0
57 1 7 -0.68 0.10209704353478033 2.2139125125007943 2.3407010868961926 0 0 0
58 1 6 -0.5091 -0.050164299687344815 -0.6216121393276808 1.5728440189668826 0 0 0
59 1 6 -0.5091 0.3931528835206448 -0.8605203416551095 5.129983205247426 0 0 0
66 2 4 0.063 2.302504970828176 4.987472455009124 5.960997184014194 0 0 0
188 6 4 0.063 -2.6352422955648205 3.662995368094297 2.8816700505634474 1 0 0
192 6 4 0.063 -2.443949928441545 3.0027875766919294 0.5792911941873252 1 0 0
196 6 4 0.063 -2.663865991836642 5.340194546000432 1.3897829677583908 1 0 0
236 6 4 0.063 -2.7735903973823417 3.9030000010978796 5.153622490574461 1 0 0
289 7 5 0.424 -0.05620805148959418 3.987579614662107 2.4464828099201963 0 0 0
305 7 2 0.2503 -0.1985637575266268 5.498056787195817 3.585463795442495 0 0 0
307 7 4 0.063 -0.5550373082641924 4.932101944071331 4.461414251302596 0 0 0
312 7 7 -0.68 -0.48999519931809754 4.8995827949682065 2.3470164502263704 0 0 0
332 7 5 0.424 -0.00010064640060747365 5.572842337918137 0.5899315789925144 0 0 0
52 1 4 0.063 -0.9199153596901113 -1.3800298746029578 3.542957029813966 0 0 0
70 2 4 0.063 2.3694739942158316 2.878826444683919 6.666062244323538 0 0 0
306 7 4 0.063 0.8873394390818028 5.687267744886568 3.749976492335018 0 0 0
81 1 5 0.424 0.34490561595596025 -1.5643891349296632 6.790109246055101 0 0 0
26 2 4 0.063 2.367541645877112 4.1112168685801365 -0.002928081624135756 0 0 0
76 2 6 -0.5091 3.330210330249302 3.256060235719162 4.0945388996235135 0 0 0
35 2 6 -0.5091 3.3813634772644265 4.702398340735358 2.406886828568458 0 0 0
534 14 4 0.063 3.043991543787558 -1.696123761902888 1.005915757802678 0 1 0
21 2 1 0.213 3.6003945048687136 2.379877755106345 1.808882066317146 0 0 0
65 2 1 0.213 3.4418760891529576 5.162728373463307 5.777810035014424 0 0 0
42 2 5 0.424 3.6099061912529793 -0.27732573214053957 5.452502919997127 0 0 0
69 2 1 0.213 3.4554455217327886 2.7044201353947823 6.488467158016679 0 0 0
19 2 3 0.243 4.009490536555373 3.4902487562475315 2.796422174998032 0 0 0
20 2 4 0.063 5.055913623887234 3.6134543247688686 2.9234281576559193 0 0 0
23 2 1 0.213 3.995537760959116 2.723585470866177 0.41683713111869225 0 0 0
24 2 4 0.063 5.105741323418426 2.6597904864280704 0.4406915811591663 0 0 0
27 2 1 0.213 3.8941665384529394 5.150389851278672 1.1409134603788373 0 0 0
28 2 4 0.063 5.002475605353521 5.1469273892268825 1.130244798862035 0 0 0
32 2 7 -0.68 4.030106150401489 1.085268809194969 2.2942448386405827 0 0 0
67 2 1 0.213 3.9041123971728844 3.7061206104412427 5.364795942860947 0 0 0
68 2 4 0.063 4.955168822030567 3.768819613517759 5.352020054896682 0 0 0
71 2 2 0.2503 3.8865526998373987 1.2483600539263144 6.329007630255665 0 0 0
78 2 7 -0.68 3.386800189710585 0.6244460717112208 5.151287060180348 0 0 0
83 2 5 0.424 3.67028263252492 1.0851356074642498 3.191806814616111 0 0 0
86 3 4 0.063 9.049076399082674 -0.3463287478467192 0.5157948090122257 0 0 0
106 4 4 0.063 9.738880004620484 2.5712079453005696 1.7859126065103055 0 0 0
119 4 6 -0.5091 10.879097553517564 4.86632762005483 2.258588750422829 0 0 0
122 3 5 0.424 7.1726393535900925 2.6800880453701765 6.049100344219245 0 0 0
123 3 5 0.424 7.219081570024194 1.8620076316211436 1.3434838538880263 0 0 0
127 3 3 0.243 7.453701997506478 0.2848233089561609 5.447114747917143 0 0 0
128 3 4 0.063 6.388146657628388 0.20313901865700945 5.574934745073655 0 0 0
129 3 1 0.213 7.5782338273663505 1.5456352863697593 4.5529975661982265 0 0 0
130 3 4 0.063 8.662440019662649 1.844057143532316 4.615310947943998 0 0 0
131 3 1 0.213 7.121192430624999 1.143152383385765 3.1263488582084435 0 0 0
132 3 4 0.063 6.063790968520294 0.9876184699302639 3.2152126403508516 0 0 0
133 3 1 0.213 7.729397718006817 -0.23658494527246865 2.6991715968026218 0 0 0
134 3 4 0.063 8.77935504888061 -0.0978192254853627 2.528624023434693 0 0 0
135 3 1 0.213 7.616752671129754 -1.4197866765629685 3.70614742156591 0 0 0
136 3 4 0.063 6.630963812976882 -1.7964473772057357 3.747981021523433 0 0 0
140 3 7 -0.68 6.805529549368947 2.600345308807648 5.148728806509602 0 0 0
141 3 7 -0.68 7.390012390155279 2.2046078805553355 2.1950591302619316 0 0 0
142 3 6 -0.5091 7.177780639693609 -0.678311664065111 1.4658276145990443 0 0 0
143 3 6 -0.5091 8.08665295867559 -0.9616782480257311 4.99625314543984 0 0 0
149 4 1 0.213 10.782488577832048 5.346729853763952 5.636787217154011 0 0 0
150 4 4 0.063 9.712712112764365 5.504121043927565 5.820730253319482 0 0 0
153 4 1 0.213 10.704324065190116 2.971475442442215 6.378701977735035 0 0 0
160 4 6 -0.5091 10.37015179190816 3.591782792563377 3.9733654290212828 0 0 0
373 9 5 0.424 7.274399929009451 3.864652302767695 2.5633629096776493 0 0 0
389 9 2 0.2503 7.369422725905476 5.516143893507001 3.7062501403276276 0 0 0
391 9 4 0.063 6.92917277332552 4.9203738037872755 4.53789616451757 0 0 0
396 9 7 -0.68 7.01008157624941 4.854848359782824 2.5066610055600127 0 0 0
416 9 5 0.424 7.624610191307365 5.522711508158127 0.8744463650682524 0 0 0
533 14 2 0.2503 4.121485424171268 -1.6135313789679304 0.884346206081474 0 1 0
105 4 1 0.213 10.827013700101668 2.475773694647244 1.9026624141837982 0 0 0
535 14 4 0.063 4.494182399754703 -1.1037232197767304 1.7652573035903012 0 1 0
618 16 4 0.063 10.191610072036102 -1.6694495304325643 0.9330066387026623 0 1 0
154 4 4 0.063 9.543090795462849 3.0715817325063774 6.278963325362706 0 0 0
40 2 5 0.424 3.7288459606332314 5.5225644109395455 3.906470072688803 0 0 0
85 3 3 0.243 8.003637804377481 -0.4258405176895814 0.3003085851848128 0 0 0
390 9 4 0.063 8.459456511690233 5.510392885423206 3.8874584334159277 0 0 0
124 4 5 0.424 10.982114330176211 5.907286598218095 3.7937441353482697 0 0 0
151 4 1 0.213 11.065184871184584 3.9052986306378283 5.182608338397616 0 0 0
162 4 7 -0.68 10.996852796364271 0.747087210507436 5.160454795919978 0 0 0
72 2 4 0.063 4.9837292967663736 1.3550585309908292 6.4259065704338445 0 0 0
103 4 3 0.243 11.247707517377913 3.679652134015442 2.861516449331791 0 0 0
155 4 2 0.2503 11.158431717009513 1.483957017262743 6.2866771659266165 0 0 0
579 14 7 -0.68 4.594186833462685 -2.004107981904535 4.718723599514322 0 1 0
1106 9 7 -0.68 7.977788359256063 5.615870824155977 -0.0560603827807573 0 0 1
167 4 5 0.424 11.27625505131054 1.3430616597186957 3.4504846408557484 0 0 0
126 4 5 0.424 10.954945070283435 -0.20075646270583203 5.377507860098734 0 0 0
116 4 7 -0.68 11.244661207859368 1.171977543746023 2.526585289000968 0 0 0
109 4 1 0.213 11.187922689177496 4.183702242246727 -0.033239857592174446 0 0 0
617 16 2 0.2503 11.31293537942054 -1.6275627634092507 1.067578190662423 0 1 0
75 2 7 -0.68 3.7772194830904935 6.075480943082855 4.744050564708056 0 0 0
165 3 5 0.424 7.90624392187665 -1.9312991853358632 6.600611946395138 0 0 0
100 3 6 -0.5091 8.1201548098826 0.5413655216511475 6.764831210378757 0 0 0
25 2 1 0.213 3.5264716365709985 4.1332291890457045 0.073537528820661 0 0 0
1344 14 5 0.424 4.4306047203704315 -0.12484484664725426 -0.06527287200611095 0 1 1
195 6 1 0.213 18.572596899874014 5.274389566628246 1.1590273443772494 0 0 0
111 4 1 0.213 11.541817011111172 5.231994574324109 0.9876193285503592 0 0 0
107 4 1 0.213 11.478447683987163 2.7335004354087635 0.49213104264043406 0 0 0
703 18 4 0.063 18.785249863329774 -0.8200439237243955 1.9097201277044533 0 1 0
239 6 2 0.2503 18.680178528762276 1.2392661105160738 6.18457473060551 0 0 0
200 6 7 -0.68 19.15978352878527 1.378192347298154 2.176306269898186 0 0 0
191 6 1 0.213 18.78238178223301 2.906298702847744 0.4157057469737909 0 0 0
235 6 1 0.213 18.48428839230055 3.7436900871177174 5.297689605971018 0 0 0
619 16 4 0.063 11.450124310415175 -0.9745825267234967 1.9818157993823569 0 1 0
210 6 5 0.424 19.25634095819443 -0.11123186655593642 4.903417204033132 0 0 0
251 6 5 0.424 19.017766515721924 1.3756207732397674 3.116156361610989 0 0 0
246 6 7 -0.68 19.191840517729922 0.8903808454171931 4.901597351032463 0 0 0
104 4 4 0.063 12.277665835207117 3.6124673895892263 3.0829285318208313 0 0 0
108 4 4 0.063 12.551092004945685 2.6126654813506827 0.6071098370392224 0 0 0
112 4 4 0.063 12.67432891970928 5.149368301526274 1.0761213303979902 0 0 0
152 4 4 0.063 12.154695282887063 3.8889356052776565 5.007174245885732 0 0 0
169 5 3 0.243 15.290875278380542 -0.49954890048085865 0.4315580752072766 0 0 0
170 5 4 0.063 16.34077058880674 -0.21384987120881238 0.5688360881587707 0 0 0
187 6 3 0.243 18.555082986346726 3.6590717195280247 2.8151450632407764 0 0 0
189 6 1 0.213 18.359608050342615 2.519802671594861 1.8086611698987847 0 0 0
190 6 4 0.063 17.28724218391271 2.192349525497697 1.8547760850209292 0 0 0
203 6 6 -0.5091 17.9861853385383 4.879855478589781 2.4726699386389215 0 0 0
206 5 5 0.424 14.56967595427959 2.5242483648660254 6.19642647093855 0 0 0
207 5 5 0.424 14.342575589123568 1.5199602184671028 1.61615489953046 0 0 0
211 5 3 0.243 15.01492822808549 0.0036851985953223476 5.776336432554808 0 0 0
212 5 4 0.063 13.99425233323453 -0.38492509718428436 5.746408705130313 0 0 0
213 5 1 0.213 14.997825005362001 1.2196914664119403 4.773768528910572 0 0 0
214 5 4 0.063 16.082357559561622 1.5390009633434207 4.753370101124657 0 0 0
215 5 1 0.213 14.579395748461112 0.8830548670630338 3.3412184963438083 0 0 0
216 5 4 0.063 13.493683528052019 0.581973543192488 3.2557917483851764 0 0 0
217 5 1 0.213 15.250556243962047 -0.46049003875449435 2.9028272381331743 0 0 0
218 5 4 0.063 16.3096196497086 -0.22143536343274106 2.7310018097217315 0 0 0
219 5 1 0.213 15.255639731063232 -1.5379460278891046 4.098533581699542 0 0 0
220 5 4 0.063 14.147618483836302 -1.692608920411874 4.131591981590666 0 0 0
224 5 7 -0.68 14.184650701918967 2.3743125992945977 5.323449963749888 0 0 0
225 5 7 -0.68 14.766493565020076 1.9855677253009478 2.460544876505749 0 0 0
226 5 6 -0.5091 14.641934077610655 -0.883033938967055 1.6867088321460364 0 0 0
227 5 6 -0.5091 15.870041852836435 -1.049709633220195 5.279702128394164 0 0 0
233 6 1 0.213 17.875285782969684 5.106616423993492 5.774400446528208 0 0 0
234 6 4 0.063 16.815014047467585 4.8193866796044675 5.846596300437626 0 0 0
237 6 1 0.213 18.19541972902215 2.7044509544690127 6.407709905370532 0 0 0
244 6 6 -0.5091 17.837746924397017 3.3774751563691394 4.048347631506708 0 0 0
457 11 5 0.424 14.93122097756711 3.9069393062343263 2.909080514057664 0 0 0
473 11 2 0.2503 15.036551925520579 5.521934020356064 3.9882671852907388 0 0 0
475 11 4 0.063 14.866359059456586 4.998027769445077 4.981822021199929 0 0 0
480 11 7 -0.68 14.404675574583363 4.7853880224340735 2.935363483039096 0 0 0
500 11 5 0.424 14.647337986680162 5.209115287585187 1.093997113407099 0 0 0
701 18 2 0.2503 18.57885459225541 -1.425275556847248 1.0413403537818484 0 1 0
474 11 4 0.063 16.11407424697439 5.499081730779449 3.892821727311829 0 0 0
156 4 4 0.063 12.292304409604878 1.4390961344406308 6.4907210689078605 0 0 0
702 18 4 0.063 17.550964267985485 -1.7405770256056083 1.0576124879962328 0 1 0
238 6 4 0.063 17.13940445587103 2.757076536004747 6.539874048391287 0 0 0
208 6 5 0.424 17.817907469182693 5.784858123377805 3.941938359830684 0 0 0
193 6 1 0.213 18.313087722552865 4.274044179415289 -0.02761065362588762 0 0 0
747 18 7 -0.68 19.15194987950988 -1.9460279127603426 4.935050227952473 0 1 0
663 16 7 -0.68 11.84039845763623 -1.8683291934768187 4.968439107921698 0 1 0
1512 18 5 0.424 18.826701320750253 0.21049780300240162 0.023863029291640164 0 1 1
1428 16 5 0.424 11.608966650287625 -0.11589704590176675 0.12570344305230297 0 1 1
1190 11 7 -0.68 15.057248508959729 5.422546974942718 0.2036570588537518 0 0 1
941 5 6 -0.5091 14.517021726979346 0.5526293387928329 -0.0581225651778388 0 0 1
194 6 4 0.063 17.228285743847962 4.320919705820099 -0.12133336425215122 0 0 0
241 6 4 0.063 17.816003136366845 0.4774229544742732 6.356821542459446 0 0 0
624 16 7 -0.68 11.81859051750232 -1.0682271074662155 -0.03194644899393009 0 1 0
30 2 4 0.063 2.1288315170862875 6.547286661731709 0.8757338280481761 0 0 0
253 7 3 0.243 -0.6894361947029253 7.671046160513592 0.15089142969606884 0 0 0
254 7 4 0.063 0.33903029928985706 7.943919664172954 0.3936765607959406 0 0 0
274 8 4 0.063 1.5322649299777993 10.709595501104365 1.6484455504402127 0 0 0
287 8 6 -0.5091 2.7304587826295226 13.029484422824625 2.2627009079477043 0 0 0
290 7 5 0.424 -1.09954218192886 11.113875383883926 5.695147743940225 0 0 0
291 7 5 0.424 -1.3515459664532086 9.841767641784159 1.1613891268614804 0 0 0
295 7 3 0.243 -1.0703873606258443 8.594433810631214 5.367682524770114 0 0 0
296 7 4 0.063 -2.214079264269561 8.408531202659198 5.3490691344519465 0 0 0
297 7 1 0.213 -0.7160486175366325 9.68616308351201 4.385765691797928 0 0 0
298 7 4 0.063 0.3673212211123076 9.747560246759267 4.287536725092567 0 0 0
299 7 1 0.213 -1.2352360660028618 9.264588840343661 2.964052985237123 0 0 0
300 7 4 0.063 -2.403760854233188 9.199264789834693 3.0721168066107865 0 0 0
301 7 1 0.213 -0.7081718614816113 7.835137765894476 2.559463852151426 0 0 0
302 7 4 0.063 0.34998648427003065 7.858050697811635 2.3816042642548987 0 0 0
303 7 1 0.213 -0.9027771942208651 6.896494957799437 3.7780992596942697 0 0 0
304 7 4 0.063 -2.0099150175931912 6.746646418273738 3.847747194912036 0 0 0
308 7 7 -0.68 -1.3989991254364653 10.87773777248696 4.787858157666235 0 0 0
309 7 7 -0.68 -0.989587887660166 10.290426784673228 1.9332486789367582 0 0 0
310 7 6 -0.5091 -1.3872811373551206 7.3192770852314 1.4017339043366077 0 0 0
311 7 6 -0.5091 -0.4516783663454209 7.396720093701132 5.014703730741866 0 0 0
317 8 1 0.213 2.4504774339219946 13.383632236601176 5.508545249631601 0 0 0
318 8 4 0.063 1.3023202423000546 13.390678589271266 5.580737573952353 0 0 0
321 8 1 0.213 2.3830986598516306 10.993828319045688 6.247424516302765 0 0 0
328 8 6 -0.5091 2.2814620371246157 11.588795818409965 3.925208555499462 0 0 0
440 12 4 0.063 -3.378005373193846 11.719968098098466 2.9995967384992888 1 0 0
448 12 4 0.063 -3.331738263901876 13.697907312847356 1.0348286782392728 1 0 0
488 12 4 0.063 -3.4329292893721783 12.079715570263012 5.175575670036072 1 0 0
541 13 5 0.424 -0.9138201047854018 12.103174526569985 2.5540549523450626 0 0 0
557 13 2 0.2503 -0.7366679941189931 13.74876215733405 3.6572322025005626 0 0 0
559 13 4 0.063 -0.8210924897545673 13.119831411632664 4.57154319314386 0 0 0
564 13 7 -0.68 -1.1512443041712648 13.001277116458573 2.458912327634256 0 0 0
584 13 5 0.424 -1.0126846128539027 13.74355766378637 0.7905713336547815 0 0 0
273 8 1 0.213 2.6157486428934185 10.669082955279292 1.7061829296175584 0 0 0
558 13 4 0.063 0.35458216352426586 13.865857493782082 3.590055174229556 0 0 0
444 12 4 0.063 -3.2408313979010757 11.149238221796217 0.4310339465894373 1 0 0
319 8 1 0.213 2.899715417266039 11.947948074124035 5.155392486245027 0 0 0
330 8 7 -0.68 2.4800600548446017 8.815147260132767 5.016865420520301 0 0 0
335 8 5 0.424 2.713208555892245 9.218552907484591 3.11450094087353 0 0 0
294 8 5 0.424 2.813766947211347 7.932208863214447 5.13903082046057 0 0 0
322 8 4 0.063 1.2840294733831312 11.012463630512077 6.241545662914959 0 0 0
292 8 5 0.424 2.552602353852821 14.069940209452232 3.761223750392086 0 0 0
323 8 2 0.2503 2.9073294796603815 9.524343625239375 6.193396605004102 0 0 0
492 12 4 0.063 -3.4373453554912095 9.559653985708888 6.34104144596101 1 0 0
333 7 5 0.424 -0.09244393657696381 6.648264010018234 6.458384942437886 0 0 0