LAMMPS data file via write_data, version 27 Jun 2024, timestep = 1000000, units = real

1512 atoms
7 atom types
1584 bonds
11 bond types
2952 angles
23 angle types
4752 dihedrals
39 dihedral types
1728 impropers
17 improper types

-2.4417799678128542 19.5630551678153 xlo xhi
-2.115111029493562 22.483784834494188 ylo yhi
-0.14507680733646922 20.985943033339097 zlo zhi
-2.8244375831234305 0 0 xy xz yz

Atom Type Labels

1 c1
2 c2
3 coh
4 hc
5 ho
6 oc
7 oh

Bond Type Labels

1 c1-c1
2 c1-c2
3 c1-coh
4 c1-hc
5 c1-oc
6 c1-oh
7 c2-hc
8 c2-oh
9 coh-hc
10 coh-oc
11 ho-oh

Angle Type Labels

1 c1-c1-c1
2 c1-c1-c2
3 c1-c1-coh
4 c1-c1-hc
5 c1-c1-oc
6 c1-c1-oh
7 c1-c2-hc
8 c1-c2-oh
9 c1-coh-hc
10 c1-coh-oc
11 c1-oc-coh
12 c1-oh-ho
13 c2-c1-hc
14 c2-c1-oc
15 c2-oh-ho
16 coh-c1-hc
17 coh-c1-oh
18 hc-c1-oc
19 hc-c1-oh
20 hc-c2-hc
21 hc-c2-oh
22 hc-coh-oc
23 oc-coh-oc

Dihedral Type Labels

1 c1-c1-c1-c1
2 c1-c1-c1-c2
3 c1-c1-c1-coh
4 hc-c1-c1-hc
5 c1-c1-c1-hc
6 c2-c1-c1-hc
7 coh-c1-c1-hc
8 c1-c1-c1-oc
9 c2-c1-c1-oc
10 oc-c1-c1-oc
11 hc-c1-c1-oc
12 coh-c1-c1-oh
13 oc-c1-c1-oh
14 c1-c1-c1-oh
15 hc-c1-c1-oh
16 oh-c1-c1-oh
17 hc-c1-c2-hc
18 c1-c1-c2-hc
19 oc-c1-c2-oh
20 c1-c1-c2-oh
21 hc-c1-c2-oh
22 hc-c1-coh-hc
23 c1-c1-coh-hc
24 c1-c1-coh-oc
25 hc-c1-coh-oc
26 c2-c1-oc-coh
27 c1-c1-oc-coh
28 c1-c1-oh-ho
29 hc-c1-oh-ho
30 coh-c1-oh-ho
31 hc-c2-c1-oc
32 c1-c2-oh-ho
33 hc-c2-oh-ho
34 oc-coh-c1-oh
35 hc-coh-c1-oh
36 c1-coh-oc-c1
37 hc-c1-oc-coh
38 hc-coh-oc-c1
39 oc-coh-oc-c1

Improper Type Labels

1 c1-c1-c1-hc-nb!=3
2 c1-c1-c1-oc-nb!=3
3 c1-c1-c1-oh-nb!=3
4 c1-c1-c2-hc-nb!=3
5 c1-c1-c2-oc-nb!=3
6 c1-c1-coh-hc-nb!=3
7 c1-c1-coh-oh-nb!=3
8 c1-c1-hc-oc-nb!=3
9 c1-c1-hc-oh-nb!=3
10 c1-c2-hc-hc-nb!=3
11 c1-c2-hc-oh-nb!=3
12 c1-coh-hc-oc-nb!=3
13 c1-coh-oc-oc-nb!=3
14 c2-c1-hc-oc-nb!=3
15 coh-c1-hc-oh-nb!=3
16 hc-c2-hc-oh-nb!=3
17 hc-coh-oc-oc-nb!=3

Masses

1 12.01115
2 12.01115
3 12.01115
4 1.00797
5 1.00797
6 15.9994
7 15.9994

Pair Coeffs # lj/class2/coul/long

1 0.054 4.01
2 0.054 4.01
3 0.054 4.01
4 0.02 2.3
5 0.013 1.098
6 0.24 3.535
7 0.24 3.535

Bond Coeffs # morse

1 82.6961 2 1.53
2 82.6961 2 1.53
3 82.6961 2 1.53
4 98.2315 2 1.101
5 85.5641 2.3 1.42
6 85.5641 2.3 1.42
7 98.2315 2 1.101
8 85.5641 2.3 1.42
9 98.2315 2 1.101
10 85.5641 2.3 1.42
11 109.704 2.3 0.965

Angle Coeffs # class2xe

1 112.67 39.516 -7.443 -9.5583
2 112.67 39.516 -7.443 -9.5583
3 112.67 39.516 -7.443 -9.5583
4 110.77 41.453 -10.604 5.129
5 111.27 54.5381 -8.3642 -13.0838
6 111.27 54.5381 -8.3642 -13.0838
7 110.77 41.453 -10.604 5.129
8 111.27 54.5381 -8.3642 -13.0838
9 110.77 41.453 -10.604 5.129
10 111.27 54.5381 -8.3642 -13.0838
11 104.5 35.7454 -10.0067 -6.2729
12 105.8 52.7061 -12.109 -9.8681
13 110.77 41.453 -10.604 5.129
14 111.27 54.5381 -8.3642 -13.0838
15 105.8 52.7061 -12.109 -9.8681
16 110.77 41.453 -10.604 5.129
17 111.27 54.5381 -8.3642 -13.0838
18 108.728 58.5446 -10.8088 -12.4006
19 108.728 58.5446 -10.8088 -12.4006
20 107.66 39.641 -12.921 -2.4318
21 108.728 58.5446 -10.8088 -12.4006
22 108.728 58.5446 -10.8088 -12.4006
23 109.5 70 0 0

BondBond Coeffs

1 82.6961 0 1.53 1.53
2 82.6961 0 1.53 1.53
3 82.6961 0 1.53 1.53
4 90.4638 0.136826 1.53 1.101
5 84.1301 0.260655 1.53 1.42
6 84.1301 0.260655 1.53 1.42
7 90.4638 0.136826 1.53 1.101
8 84.1301 0.260655 1.53 1.42
9 90.4638 0.136826 1.53 1.101
10 84.1301 0.260655 1.53 1.42
11 85.5641 0.203877 1.42 1.42
12 97.6339 0.222741 1.42 0.965
13 90.4638 0.136826 1.53 1.101
14 84.1301 0.260655 1.53 1.42
15 97.6339 0.222741 1.42 0.965
16 90.4638 0.136826 1.53 1.101
17 84.1301 0.260655 1.53 1.42
18 91.8978 0.355269 1.101 1.42
19 91.8978 0.355269 1.101 1.42
20 98.2315 0.164736 1.101 1.101
21 91.8978 0.355269 1.101 1.42
22 91.8978 0.355269 1.101 1.42
23 85.5641 0 1.42 1.42

BondAngle Coeffs

1 82.6961 82.6961 0.220151 0.220151 1.53 1.53
2 82.6961 82.6961 0.220151 0.220151 1.53 1.53
3 82.6961 82.6961 0.220151 0.220151 1.53 1.53
4 82.6961 98.2315 0.354237 0.241108 1.53 1.101
5 82.6961 85.5641 0.127456 0.345294 1.53 1.42
6 82.6961 85.5641 0.127456 0.345294 1.53 1.42
7 82.6961 98.2315 0.354237 0.241108 1.53 1.101
8 82.6961 85.5641 0.127456 0.345294 1.53 1.42
9 82.6961 98.2315 0.354237 0.241108 1.53 1.101
10 82.6961 85.5641 0.127456 0.345294 1.53 1.42
11 85.5641 85.5641 0.12817 0.12817 1.42 1.42
12 85.5641 109.704 0.408668 0.293713 1.42 0.965
13 82.6961 98.2315 0.354237 0.241108 1.53 1.101
14 82.6961 85.5641 0.127456 0.345294 1.53 1.42
15 85.5641 109.704 0.408668 0.293713 1.42 0.965
16 82.6961 98.2315 0.354237 0.241108 1.53 1.101
17 82.6961 85.5641 0.127456 0.345294 1.53 1.42
18 98.2315 85.5641 0.153331 0.568601 1.101 1.42
19 98.2315 85.5641 0.153331 0.568601 1.101 1.42
20 98.2315 98.2315 0.303553 0.303553 1.101 1.101
21 98.2315 85.5641 0.153331 0.568601 1.101 1.42
22 98.2315 85.5641 0.153331 0.568601 1.101 1.42
23 85.5641 85.5641 0 0 1.42 1.42

Dihedral Coeffs # class2xe

1 0 0 0.0514 0 -0.143 0
2 0 0 0.0514 0 -0.143 0
3 0 0 0.0514 0 -0.143 0
4 -0.1432 0 0.0617 0 -0.1083 0
5 0 0 0.0316 0 -0.1681 0
6 0 0 0.0316 0 -0.1681 0
7 0 0 0.0316 0 -0.1681 0
8 0.7137 0 0.266 0 -0.2545 0
9 0.7137 0 0.266 0 -0.2545 0
10 -0.182 0 -0.1084 0 -0.7047 0
11 -0.1435 0 0.253 0 -0.0905 0
12 0.7137 0 0.266 0 -0.2545 0
13 -0.182 0 -0.1084 0 -0.7047 0
14 0.7137 0 0.266 0 -0.2545 0
15 -0.1435 0 0.253 0 -0.0905 0
16 -0.182 0 -0.1084 0 -0.7047 0
17 -0.1432 0 0.0617 0 -0.1083 0
18 0 0 0.0316 0 -0.1681 0
19 -0.182 0 -0.1084 0 -0.7047 0
20 0.7137 0 0.266 0 -0.2545 0
21 -0.1435 0 0.253 0 -0.0905 0
22 -0.1432 0 0.0617 0 -0.1083 0
23 0 0 0.0316 0 -0.1681 0
24 0.7137 0 0.266 0 -0.2545 0
25 -0.1435 0 0.253 0 -0.0905 0
26 -0.5203 0 -0.3028 0 -0.345 0
27 -0.5203 0 -0.3028 0 -0.345 0
28 -0.6732 0 -0.4778 0 -0.167 0
29 0.1863 0 -0.4338 0 -0.2121 0
30 -0.6732 0 -0.4778 0 -0.167 0
31 -0.1435 0 0.253 0 -0.0905 0
32 -0.6732 0 -0.4778 0 -0.167 0
33 0.1863 0 -0.4338 0 -0.2121 0
34 -0.182 0 -0.1084 0 -0.7047 0
35 -0.1435 0 0.253 0 -0.0905 0
36 -0.5203 0 -0.3028 0 -0.345 0
37 0.5302 0 0 0 -0.3966 0
38 0.5302 0 0 0 -0.3966 0
39 0 0 0 0 0.13 0

AngleAngleTorsion Coeffs

1 -22.045 112.67 112.67
2 -22.045 112.67 112.67
3 -22.045 112.67 112.67
4 -12.564 110.77 110.77
5 -16.164 112.67 110.77
6 -16.164 112.67 110.77
7 -16.164 112.67 110.77
8 -29.042 112.67 111.27
9 -29.042 112.67 111.27
10 -14.0484 111.27 111.27
11 -20.2006 110.77 111.27
12 -29.042 112.67 111.27
13 -14.0484 111.27 111.27
14 -29.042 112.67 111.27
15 -20.2006 110.77 111.27
16 -14.0484 111.27 111.27
17 -12.564 110.77 110.77
18 -16.164 112.67 110.77
19 -14.0484 111.27 111.27
20 -29.042 112.67 111.27
21 -20.2006 110.77 111.27
22 -12.564 110.77 110.77
23 -16.164 112.67 110.77
24 -29.042 112.67 111.27
25 -20.2006 110.77 111.27
26 -19.0059 111.27 104.5
27 -19.0059 111.27 104.5
28 -12.1038 111.27 105.8
29 -10.5093 108.728 105.8
30 -12.1038 111.27 105.8
31 -20.2006 110.77 111.27
32 -12.1038 111.27 105.8
33 -10.5093 108.728 105.8
34 -14.0484 111.27 111.27
35 -20.2006 110.77 111.27
36 -19.0059 111.27 104.5
37 -16.4438 108.728 104.5
38 -16.4438 108.728 104.5
39 0 109.5 104.5

EndBondTorsion Coeffs

1 2 2 -0.0732 0 0 -0.0732 0 0 1.53 1.53
2 2 2 -0.0732 0 0 -0.0732 0 0 1.53 1.53
3 2 2 -0.0732 0 0 -0.0732 0 0 1.53 1.53
4 2 2 0.213 0.312 0.0777 0.213 0.312 0.0777 1.101 1.101
5 2 2 0.2486 0.2422 -0.0925 0.0814 0.0591 0.2219 1.53 1.101
6 2 2 0.2486 0.2422 -0.0925 0.0814 0.0591 0.2219 1.53 1.101
7 2 2 0.2486 0.2422 -0.0925 0.0814 0.0591 0.2219 1.53 1.101
8 2 2.3 -0.319 0.4411 -0.7174 1.1538 0.8409 -0.9138 1.53 1.42
9 2 2.3 -0.319 0.4411 -0.7174 1.1538 0.8409 -0.9138 1.53 1.42
10 2.3 2.3 1.0165 0.7553 -0.4609 1.0165 0.7553 -0.4609 1.42 1.42
11 2 2.3 0.9681 0.9551 0.0436 0.5903 0.6669 0.8584 1.101 1.42
12 2 2.3 -0.319 0.4411 -0.7174 1.1538 0.8409 -0.9138 1.53 1.42
13 2.3 2.3 1.0165 0.7553 -0.4609 1.0165 0.7553 -0.4609 1.42 1.42
14 2 2.3 -0.319 0.4411 -0.7174 1.1538 0.8409 -0.9138 1.53 1.42
15 2 2.3 0.9681 0.9551 0.0436 0.5903 0.6669 0.8584 1.101 1.42
16 2.3 2.3 1.0165 0.7553 -0.4609 1.0165 0.7553 -0.4609 1.42 1.42
17 2 2 0.213 0.312 0.0777 0.213 0.312 0.0777 1.101 1.101
18 2 2 0.2486 0.2422 -0.0925 0.0814 0.0591 0.2219 1.53 1.101
19 2.3 2.3 1.0165 0.7553 -0.4609 1.0165 0.7553 -0.4609 1.42 1.42
20 2 2.3 -0.319 0.4411 -0.7174 1.1538 0.8409 -0.9138 1.53 1.42
21 2 2.3 0.9681 0.9551 0.0436 0.5903 0.6669 0.8584 1.101 1.42
22 2 2 0.213 0.312 0.0777 0.213 0.312 0.0777 1.101 1.101
23 2 2 0.2486 0.2422 -0.0925 0.0814 0.0591 0.2219 1.53 1.101
24 2 2.3 -0.319 0.4411 -0.7174 1.1538 0.8409 -0.9138 1.53 1.42
25 2 2.3 0.9681 0.9551 0.0436 0.5903 0.6669 0.8584 1.101 1.42
26 2 2.3 -0.2456 1.0517 -0.7795 0.4741 1.2635 0.5576 1.53 1.42
27 2 2.3 -0.2456 1.0517 -0.7795 0.4741 1.2635 0.5576 1.53 1.42
28 2 2.3 -0.58 0.9004 0 0 0.5343 0.9025 1.53 0.965
29 2 2.3 -1.7554 1.3145 0.2263 0.2493 0.6803 0 1.101 0.965
30 2 2.3 -0.58 0.9004 0 0 0.5343 0.9025 1.53 0.965
31 2 2.3 0.9681 0.9551 0.0436 0.5903 0.6669 0.8584 1.101 1.42
32 2 2.3 -0.58 0.9004 0 0 0.5343 0.9025 1.53 0.965
33 2 2.3 -1.7554 1.3145 0.2263 0.2493 0.6803 0 1.101 0.965
34 2.3 2.3 1.0165 0.7553 -0.4609 1.0165 0.7553 -0.4609 1.42 1.42
35 2 2.3 0.9681 0.9551 0.0436 0.5903 0.6669 0.8584 1.101 1.42
36 2 2.3 -0.2456 1.0517 -0.7795 0.4741 1.2635 0.5576 1.53 1.42
37 2 2.3 -0.6054 1.3339 0.9648 -0.162 0.1564 -1.1408 1.101 1.42
38 2 2.3 -0.6054 1.3339 0.9648 -0.162 0.1564 -1.1408 1.101 1.42
39 2.3 2.3 0 0 0 0 0 0 1.42 1.42

MiddleBondTorsion Coeffs

1 2 -17.787 -7.1877 0 1.53
2 2 -17.787 -7.1877 0 1.53
3 2 -17.787 -7.1877 0 1.53
4 2 -14.261 -0.5322 -0.4864 1.53
5 2 -14.879 -3.6581 -0.3138 1.53
6 2 -14.879 -3.6581 -0.3138 1.53
7 2 -14.879 -3.6581 -0.3138 1.53
8 2 -21.8842 -7.6764 -0.6868 1.53
9 2 -21.8842 -7.6764 -0.6868 1.53
10 2 -17.2585 -3.6157 -0.8364 1.53
11 2 -16.7975 -1.2296 -0.275 1.53
12 2 -21.8842 -7.6764 -0.6868 1.53
13 2 -17.2585 -3.6157 -0.8364 1.53
14 2 -21.8842 -7.6764 -0.6868 1.53
15 2 -16.7975 -1.2296 -0.275 1.53
16 2 -17.2585 -3.6157 -0.8364 1.53
17 2 -14.261 -0.5322 -0.4864 1.53
18 2 -14.879 -3.6581 -0.3138 1.53
19 2 -17.2585 -3.6157 -0.8364 1.53
20 2 -21.8842 -7.6764 -0.6868 1.53
21 2 -16.7975 -1.2296 -0.275 1.53
22 2 -14.261 -0.5322 -0.4864 1.53
23 2 -14.879 -3.6581 -0.3138 1.53
24 2 -21.8842 -7.6764 -0.6868 1.53
25 2 -16.7975 -1.2296 -0.275 1.53
26 2.3 -5.9288 -2.7007 -0.3175 1.42
27 2.3 -5.9288 -2.7007 -0.3175 1.42
28 2.3 1.2472 0 0.7485 1.42
29 2.3 0 0.9241 -0.5889 1.42
30 2.3 1.2472 0 0.7485 1.42
31 2 -16.7975 -1.2296 -0.275 1.53
32 2.3 1.2472 0 0.7485 1.42
33 2.3 0 0.9241 -0.5889 1.42
34 2 -17.2585 -3.6157 -0.8364 1.53
35 2 -16.7975 -1.2296 -0.275 1.53
36 2.3 -5.9288 -2.7007 -0.3175 1.42
37 2.3 -6.8007 -4.6546 -1.4101 1.42
38 2.3 -6.8007 -4.6546 -1.4101 1.42
39 2.3 0 0 0 1.42

BondBond13 Coeffs

1 82.6961 0 1.53 1.53
2 82.6961 0 1.53 1.53
3 82.6961 0 1.53 1.53
4 98.2315 0 1.101 1.101
5 90.4638 0 1.53 1.101
6 90.4638 0 1.53 1.101
7 90.4638 0 1.53 1.101
8 84.1301 0 1.53 1.42
9 84.1301 0 1.53 1.42
10 85.5641 0 1.42 1.42
11 91.8978 0 1.101 1.42
12 84.1301 0 1.53 1.42
13 85.5641 0 1.42 1.42
14 84.1301 0 1.53 1.42
15 91.8978 0 1.101 1.42
16 85.5641 0 1.42 1.42
17 98.2315 0 1.101 1.101
18 90.4638 0 1.53 1.101
19 85.5641 0 1.42 1.42
20 84.1301 0 1.53 1.42
21 91.8978 0 1.101 1.42
22 98.2315 0 1.101 1.101
23 90.4638 0 1.53 1.101
24 84.1301 0 1.53 1.42
25 91.8978 0 1.101 1.42
26 84.1301 0 1.53 1.42
27 84.1301 0 1.53 1.42
28 96.2 0 1.53 0.965
29 103.968 0 1.101 0.965
30 96.2 0 1.53 0.965
31 91.8978 0 1.101 1.42
32 96.2 0 1.53 0.965
33 103.968 0 1.101 0.965
34 85.5641 0 1.42 1.42
35 91.8978 0 1.101 1.42
36 84.1301 0 1.53 1.42
37 91.8978 0 1.101 1.42
38 91.8978 0 1.101 1.42
39 85.5641 0 1.42 1.42

AngleTorsion Coeffs

1 0.3886 -0.3139 0.1389 0.3886 -0.3139 0.1389 112.67 112.67
2 0.3886 -0.3139 0.1389 0.3886 -0.3139 0.1389 112.67 112.67
3 0.3886 -0.3139 0.1389 0.3886 -0.3139 0.1389 112.67 112.67
4 -0.8085 0.5569 -0.2466 -0.8085 0.5569 -0.2466 110.77 110.77
5 -0.2454 0 -0.1136 0.3113 0.4516 -0.1988 112.67 110.77
6 -0.2454 0 -0.1136 0.3113 0.4516 -0.1988 112.67 110.77
7 -0.2454 0 -0.1136 0.3113 0.4516 -0.1988 112.67 110.77
8 0.5623 -0.3041 -0.4015 0.9672 -0.7566 -1.2331 112.67 111.27
9 0.5623 -0.3041 -0.4015 0.9672 -0.7566 -1.2331 112.67 111.27
10 0.5511 0.9737 -0.6673 0.5511 0.9737 -0.6673 111.27 111.27
11 2.3668 2.492 -1.0122 -0.1892 0.4918 0.7273 110.77 111.27
12 0.5623 -0.3041 -0.4015 0.9672 -0.7566 -1.2331 112.67 111.27
13 0.5511 0.9737 -0.6673 0.5511 0.9737 -0.6673 111.27 111.27
14 0.5623 -0.3041 -0.4015 0.9672 -0.7566 -1.2331 112.67 111.27
15 2.3668 2.492 -1.0122 -0.1892 0.4918 0.7273 110.77 111.27
16 0.5511 0.9737 -0.6673 0.5511 0.9737 -0.6673 111.27 111.27
17 -0.8085 0.5569 -0.2466 -0.8085 0.5569 -0.2466 110.77 110.77
18 -0.2454 0 -0.1136 0.3113 0.4516 -0.1988 112.67 110.77
19 0.5511 0.9737 -0.6673 0.5511 0.9737 -0.6673 111.27 111.27
20 0.5623 -0.3041 -0.4015 0.9672 -0.7566 -1.2331 112.67 111.27
21 2.3668 2.492 -1.0122 -0.1892 0.4918 0.7273 110.77 111.27
22 -0.8085 0.5569 -0.2466 -0.8085 0.5569 -0.2466 110.77 110.77
23 -0.2454 0 -0.1136 0.3113 0.4516 -0.1988 112.67 110.77
24 0.5623 -0.3041 -0.4015 0.9672 -0.7566 -1.2331 112.67 111.27
25 2.3668 2.492 -1.0122 -0.1892 0.4918 0.7273 110.77 111.27
26 -2.7466 1.4877 -0.8955 0.5676 0.945 0.0703 111.27 104.5
27 -2.7466 1.4877 -0.8955 0.5676 0.945 0.0703 111.27 104.5
28 -3.5903 2.5225 0.4888 0.8726 -0.3577 0.3888 111.27 105.8
29 -3.406 1.6396 0.0737 0 -0.281 -0.5944 108.728 105.8
30 -3.5903 2.5225 0.4888 0.8726 -0.3577 0.3888 111.27 105.8
31 2.3668 2.492 -1.0122 -0.1892 0.4918 0.7273 110.77 111.27
32 -3.5903 2.5225 0.4888 0.8726 -0.3577 0.3888 111.27 105.8
33 -3.406 1.6396 0.0737 0 -0.281 -0.5944 108.728 105.8
34 0.5511 0.9737 -0.6673 0.5511 0.9737 -0.6673 111.27 111.27
35 2.3668 2.492 -1.0122 -0.1892 0.4918 0.7273 110.77 111.27
36 -2.7466 1.4877 -0.8955 0.5676 0.945 0.0703 111.27 104.5
37 -1.8234 1.6393 0.5144 -0.7777 0.434 -0.6653 108.728 104.5
38 -1.8234 1.6393 0.5144 -0.7777 0.434 -0.6653 108.728 104.5
39 0 0 0 0 0 0 109.5 104.5

Improper Coeffs # class2

1 0 0
2 0 0
3 0 0
4 0 0
5 0 0
6 0 0
7 0 0
8 0 0
9 0 0
10 0 0
11 0 0
12 0 0
13 0 0
14 0 0
15 0 0
16 0 0
17 0 0

AngleAngle Coeffs

1 -1.3199 -1.3199 0.1184 112.67 110.77 110.77
2 -0.833 -0.833 -3.5744 112.67 111.27 111.27
3 -0.833 -0.833 -3.5744 112.67 111.27 111.27
4 -1.3199 -1.3199 0.1184 112.67 110.77 110.77
5 -0.833 -0.833 -3.5744 112.67 111.27 111.27
6 -1.3199 -1.3199 0.1184 112.67 110.77 110.77
7 -0.833 -0.833 -3.5744 112.67 111.27 111.27
8 3.9177 2.5926 0.1689 110.77 111.27 108.728
9 3.9177 2.5926 0.1689 110.77 111.27 108.728
10 0.2738 -0.4825 0.2738 110.77 110.77 107.66
11 3.9177 2.5926 0.1689 110.77 111.27 108.728
12 3.9177 2.5926 0.1689 110.77 111.27 108.728
13 0 0 0 111.27 109.5 111.27
14 3.9177 2.5926 0.1689 110.77 111.27 108.728
15 3.9177 2.5926 0.1689 110.77 111.27 108.728
16 2.4259 2.4259 2.1283 107.66 108.728 108.728
17 0 0 0 108.728 109.5 108.728

Atoms # full

22 2 4 0.063 2.3549513000380076 2.558128193809254 1.8369422888613378 0 0 0
38 1 5 0.424 -0.07444252803061113 2.7396531797052237 6.12905647830111 0 0 0
39 1 5 0.424 -0.030367110172955236 1.7060578625936755 1.5177413160797006 0 0 0
43 1 3 0.243 0.2908472827939952 0.22730334175963085 5.679527051618844 0 0 0
44 1 4 0.063 -0.7968181080904821 -0.024244127236863644 5.806163501796361 0 0 0
45 1 1 0.213 0.40307358505874946 1.4767383608646165 4.7319576274100275 0 0 0
46 1 4 0.063 1.4766855372668246 1.5640990611858108 4.78714314947585 0 0 0
47 1 1 0.213 -0.10306956828712899 1.0335381509965873 3.338955427699667 0 0 0
48 1 4 0.063 -1.147688691771303 0.675836978479543 3.5186512052083376 0 0 0
49 1 1 0.213 0.6099956188107649 -0.23970180028249022 2.836761666515417 0 0 0
50 1 4 0.063 1.6722568493840742 0.05389432889549717 2.672440297558601 0 0 0
51 1 1 0.213 0.4763039999687524 -1.381065705714326 3.929404855712348 0 0 0
52 1 4 0.063 -0.5681811182689522 -1.680311135579173 3.999231499139123 0 0 0
56 1 7 -0.68 -0.3615094303582289 2.5340280999626783 5.215243202227494 0 0 0
57 1 7 -0.68 0.02727328023733344 2.090043881593439 2.4097964654604622 0 0 0
58 1 6 -0.5091 0.08307295280309823 -0.7685719032387439 1.624485161905073 0 0 0
59 1 6 -0.5091 0.9619202359560495 -0.8614831419275955 5.123418303575242 0 0 0
66 2 4 0.063 2.241588123053127 5.118386455576788 5.694324531972495 0 0 0
188 6 4 0.063 -2.452473072751683 3.6892141100765503 3.1784823614626116 1 0 0
196 6 4 0.063 -2.2415505503085 5.439450046594845 1.3449279232526694 1 0 0
236 6 4 0.063 -2.4662320022220854 3.9222494054475288 5.089967986621026 1 0 0
289 7 5 0.424 -0.24677437141780922 3.824086397404418 2.743605221649882 0 0 0
305 7 2 0.2503 0.26922924976961315 5.495874596486342 3.7121518354832896 0 0 0
307 7 4 0.063 0.12430204407340684 4.867350212021554 4.600118528781766 0 0 0
312 7 7 -0.68 -0.3014485510189471 4.794019737570319 2.527025875230214 0 0 0
332 7 5 0.424 -0.006492952220948922 5.219044311484683 0.72122438791182 0 0 0
192 6 4 0.063 -2.1860462150032234 2.7113830894526396 0.5915763565696464 1 0 0
2 1 4 0.063 1.8012089990453584 -0.13496734000576782 0.6287967122725894 0 0 0
1 1 3 0.243 0.7047486557590248 -0.34801784871389607 0.4169537924764527 0 0 0
70 2 4 0.063 2.304785420897935 2.6220888803223863 6.309852280955435 0 0 0
306 7 4 0.063 1.341813334223025 5.611369058153215 3.480468936164333 0 0 0
240 6 4 0.063 -2.184114960086656 1.546436369172489 6.208148639003077 1 0 0
773 1 6 -0.5091 0.04575720416788531 0.8335216875309515 -0.032790696679737524 0 0 1
1022 7 7 -0.68 0.41860422168691036 5.472889212904259 -0.12072866118288184 0 0 1
81 1 5 0.424 0.9304164452396866 -1.8758099155674892 6.823451137889905 0 0 0
703 18 4 0.063 -2.2722126821992337 -0.8707083370286672 1.5686025399719954 1 1 0
76 2 6 -0.5091 3.0549587490281915 3.390633067110688 4.067100574879704 0 0 0
42 2 5 0.424 3.958098704403561 -0.2577466838464162 5.197278480877971 0 0 0
35 2 6 -0.5091 3.296932490650395 4.79529457103683 2.2326773637286705 0 0 0
534 14 4 0.063 3.1591616997725707 -1.5783929552018376 1.1921891373607842 0 1 0
65 2 1 0.213 3.3583599382286717 5.166124932843415 5.633103066618324 0 0 0
21 2 1 0.213 3.4727151333873536 2.4579718553106753 1.8159087203452318 0 0 0
83 2 5 0.424 3.7325905086242557 1.3322262215669265 3.2227927007380863 0 0 0
19 2 3 0.243 3.7236785092441007 3.64423760698093 2.816227931650796 0 0 0
20 2 4 0.063 4.813587498626443 3.7612369304924202 3.014307559731049 0 0 0
23 2 1 0.213 3.9794765169713795 2.836451346148504 0.40525846471934757 0 0 0
24 2 4 0.063 5.081531770277249 2.8324006321879907 0.5304514890446772 0 0 0
27 2 1 0.213 3.8291544482136297 5.302161399234347 1.112792538420104 0 0 0
28 2 4 0.063 4.935766483126592 5.459493636773374 1.2542625084393053 0 0 0
32 2 7 -0.68 4.000678492528865 1.2838321697685529 2.284326621974149 0 0 0
67 2 1 0.213 3.797856898664829 3.7326153058207145 5.243363637587105 0 0 0
68 2 4 0.063 4.929978260435661 3.81176180013569 5.198707799972571 0 0 0
69 2 1 0.213 3.4624745600618114 2.7159329158584615 6.366707642916768 0 0 0
71 2 2 0.2503 4.0817132565964105 1.2767452014745708 6.213972272386356 0 0 0
78 2 7 -0.68 3.7997476488496433 0.6963994609442583 4.979855622020369 0 0 0
85 3 3 0.243 7.913599519865068 -0.33286987040828486 0.4456446699163493 0 0 0
86 3 4 0.063 8.951970220092857 -0.018870882745766426 0.6295396774644063 0 0 0
105 4 1 0.213 10.858898024334954 2.599883841639797 1.8162897192099197 0 0 0
106 4 4 0.063 9.719591068215403 2.692365128396249 1.7813686630575558 0 0 0
119 4 6 -0.5091 10.683251691551146 4.900446995622562 2.3092152816005296 0 0 0
122 3 5 0.424 7.329761326233049 2.8898112779730853 6.080794581332356 0 0 0
123 3 5 0.424 7.268877870020436 1.716516768068487 1.5637501960035007 0 0 0
127 3 3 0.243 7.629462559583674 0.21326262957039965 5.75675987594617 0 0 0
128 3 4 0.063 6.588692612063388 -0.1229741633404251 5.827262016853658 0 0 0
129 3 1 0.213 7.6693918980441325 1.4964395780287907 4.810839669861858 0 0 0
130 3 4 0.063 8.716300994093395 1.8451057037002916 4.75928286961578 0 0 0
131 3 1 0.213 7.214720172633539 1.0665508124501382 3.415154129051739 0 0 0
132 3 4 0.063 6.130031176370194 0.7982738844242334 3.424444698478082 0 0 0
133 3 1 0.213 7.936371524194346 -0.20766243025932418 2.9573470137536995 0 0 0
134 3 4 0.063 8.98288447903142 0.013762386672350857 2.7208979818079775 0 0 0
135 3 1 0.213 7.787225871043024 -1.343577030806554 4.025774591452847 0 0 0
136 3 4 0.063 6.71657686041608 -1.5393383453232814 4.196597312612758 0 0 0
140 3 7 -0.68 6.906593875320487 2.5836463404196275 5.265058478792889 0 0 0
141 3 7 -0.68 7.343009839245408 2.1440584423249263 2.442928423372147 0 0 0
142 3 6 -0.5091 7.3270203967247 -0.6974844793265425 1.7339958266959061 0 0 0
143 3 6 -0.5091 8.337848621054944 -0.9105079944069909 5.251714387304502 0 0 0
149 4 1 0.213 10.699435577827678 5.214381581599051 5.661935186594627 0 0 0
150 4 4 0.063 9.59387437746488 5.265626035752083 5.822840623665577 0 0 0
160 4 6 -0.5091 10.33509371961266 3.4793999240088773 3.996994784155314 0 0 0
373 9 5 0.424 7.389065878697959 3.915246667960341 2.7661253440422042 0 0 0
389 9 2 0.2503 7.637578665553068 5.540272046854163 3.6009122332113233 0 0 0
391 9 4 0.063 7.605790812895544 4.936667881947724 4.5386828276266495 0 0 0
396 9 7 -0.68 6.984943043060349 4.806968467605292 2.6454202994810525 0 0 0
416 9 5 0.424 7.323638392813857 5.103743019727551 0.7378831169707638 0 0 0
533 14 2 0.2503 4.24000280695391 -1.5444722246448226 0.961575718667057 0 1 0
535 14 4 0.063 4.788229608434224 -0.8333497551690072 1.6695385711688178 0 1 0
153 4 1 0.213 10.803020194096684 2.7686072437615454 6.301157024605901 0 0 0
618 16 4 0.063 10.556713548650288 -1.5057867551196567 1.096628031906427 0 1 0
390 9 4 0.063 8.656121333377769 5.490556331657144 3.1881876700240173 0 0 0
154 4 4 0.063 9.716381721046863 2.644198714198329 6.298983924274796 0 0 0
72 2 4 0.063 5.052500849663997 1.7115772350514002 6.337817194655691 0 0 0
151 4 1 0.213 11.177843614861626 3.742012995658965 5.243963214785506 0 0 0
103 4 3 0.243 11.143211851913009 3.679346264954411 2.849020366989117 0 0 0
162 4 7 -0.68 11.025534803370038 0.7423760669740416 4.8093433588761005 0 0 0
579 14 7 -0.68 4.5545799493526875 -2.0178917292762013 4.754806833620507 0 1 0
109 4 1 0.213 10.965427622502812 4.297223253929406 -0.13368202545670677 0 0 0
1106 9 7 -0.68 7.8306531704401365 5.510059563515876 0.011399036719185074 0 0 1
165 3 5 0.424 8.375984198389542 -1.6857851419597534 6.889778051442809 0 0 0
167 4 5 0.424 11.024323132741747 1.1672359011900015 3.1403688446196774 0 0 0
40 2 5 0.424 3.4226000774945664 5.835702219094527 3.8187169811182717 0 0 0
857 3 6 -0.5091 7.207733785628108 0.8034638920995043 -0.04337236626699974 0 0 1
25 2 1 0.213 3.651030322664713 4.218977020407348 -0.025369453316629945 0 0 0
116 4 7 -0.68 11.105105986931964 1.2670870485419066 2.1766801671971057 0 0 0
124 4 5 0.424 10.780613651760435 5.648883884644658 3.9265815968379014 0 0 0
126 4 5 0.424 11.277417420263086 -0.19227033710333452 5.0158535841652006 0 0 0
64 2 4 0.063 4.964468581824224 5.691436417663897 6.832410410288704 0 0 0
157 4 4 0.063 10.810857214325326 0.6725400046849819 6.8767691331562 0 0 0
1344 14 5 0.424 4.418861021759303 0.009224125162420549 -0.12582831779160408 0 1 1
111 4 1 0.213 11.326537350430915 5.32717815290358 1.0483256067670137 0 0 0
107 4 1 0.213 11.322839071175101 2.8471463349349273 0.43155984016280424 0 0 0
155 4 2 0.2503 11.316176866525826 1.2903136269646787 6.117593289120045 0 0 0
195 6 1 0.213 18.679190215981755 5.363603187387172 1.085482374405362 0 0 0
619 16 4 0.063 12.049740592671133 -0.6535943227276024 1.6217631170192062 0 1 0
239 6 2 0.2503 18.720626592823514 1.2715440905082254 6.201911014472627 0 0 0
235 6 1 0.213 18.46305698515932 3.838774625815268 5.281287679226956 0 0 0
200 6 7 -0.68 18.902102825745487 1.1815908507953083 2.2693447543265552 0 0 0
617 16 2 0.2503 11.658912519250547 -1.416604205238746 0.9397443195369757 0 1 0
191 6 1 0.213 18.72442339411768 2.8367805235904777 0.49714399646701923 0 0 0
251 6 5 0.424 18.51092792307852 1.0878658931260126 3.1406016393352525 0 0 0
187 6 3 0.243 18.499108327763288 3.5997199609296633 2.9324027921200715 0 0 0
701 18 2 0.2503 19.034039618815733 -1.441650127179558 0.8925573123328825 0 1 0
210 6 5 0.424 18.884826895550013 -0.2451504623117884 5.058638944112139 0 0 0
246 6 7 -0.68 18.362079213240982 0.6004067880346304 5.050387908225907 0 0 0
104 4 4 0.063 12.201468568828874 3.7234808178079986 3.1367329479615735 0 0 0
108 4 4 0.063 12.397612865790528 2.6557552195754015 0.5130694501461919 0 0 0
112 4 4 0.063 12.468660031553313 5.263809308456942 1.0524987496108662 0 0 0
152 4 4 0.063 12.278351187259045 3.7450630843573602 5.001774804122431 0 0 0
170 5 4 0.063 16.312605128601646 -0.20715386120760293 0.6046319238250218 0 0 0
189 6 1 0.213 18.226530157835967 2.369968012073355 1.8578026773856369 0 0 0
190 6 4 0.063 17.12054745334494 2.206186175966324 1.7950912545512254 0 0 0
203 6 6 -0.5091 17.98952508555479 4.835559690964444 2.4156453063039565 0 0 0
206 5 5 0.424 14.556015538525239 2.5453800177522714 6.215893882804376 0 0 0
207 5 5 0.424 14.711457519073617 2.967510923467258 2.743469697542412 0 0 0
211 5 3 0.243 14.947296336558965 0.2368797163779215 5.699497009577642 0 0 0
212 5 4 0.063 13.896052539155741 0.03779547547542528 5.981373516659063 0 0 0
213 5 1 0.213 15.046816274872699 1.4341186716238306 4.759585064269441 0 0 0
214 5 4 0.063 16.082012439850708 1.8143655090499617 4.775166072917504 0 0 0
215 5 1 0.213 14.622336349041325 1.0984524230208867 3.3089014678361983 0 0 0
216 5 4 0.063 13.520956725050274 1.1338884922053758 3.308762451989919 0 0 0
217 5 1 0.213 15.248493136850472 -0.27412812968792566 2.860760507825297 0 0 0
218 5 4 0.063 16.33275589881223 -0.33642040404375906 2.7649143775025373 0 0 0
219 5 1 0.213 15.088342145170367 -1.340531218757712 3.9559897211471116 0 0 0
220 5 4 0.063 13.992396748196972 -1.3860112196808285 4.0977048500525175 0 0 0
224 5 7 -0.68 14.252693529764501 2.5428749679413354 5.279712635197134 0 0 0
225 5 7 -0.68 15.011912922570529 2.1140570779430874 2.3855956340887547 0 0 0
226 5 6 -0.5091 14.663894569677277 -0.7811461996346554 1.6535483513906584 0 0 0
227 5 6 -0.5091 15.682105934823214 -0.9119302994974119 5.21391512777293 0 0 0
233 6 1 0.213 18.011661807414377 5.218618019063798 5.752819422569245 0 0 0
234 6 4 0.063 16.906793883144026 5.1270729769021965 5.552895979408687 0 0 0
237 6 1 0.213 18.1525754927725 2.7620777456809433 6.390348424290302 0 0 0
244 6 6 -0.5091 17.759047185535998 3.4303729409344195 4.156349579040327 0 0 0
457 11 5 0.424 14.636985301841898 5.0176409042676315 1.8505612320991458 0 0 0
473 11 2 0.2503 14.859787858206621 5.509905853529939 3.684630463921339 0 0 0
475 11 4 0.063 14.90661269810841 4.874439269454606 4.584612212852067 0 0 0
480 11 7 -0.68 14.230981164118981 4.725014788537518 2.693151496035248 0 0 0
169 5 3 0.243 15.232863036641051 -0.3919186769272962 0.454784638414109 0 0 0
702 18 4 0.063 18.057527604311936 -1.472396793565323 1.3485559662366515 0 1 0
238 6 4 0.063 17.033126990054875 2.625620419627591 6.417242327702915 0 0 0
156 4 4 0.063 12.40779762909048 1.199741575225851 6.280543036476019 0 0 0
474 11 4 0.063 15.928270306366345 5.689274109245942 3.458815951794343 0 0 0
663 16 7 -0.68 11.955086619354727 -1.9744325510878589 4.868320045003662 0 1 0
193 6 1 0.213 18.330521935885578 4.274361691558021 0.03591262459493888 0 0 0
747 18 7 -0.68 19.210769500485192 -1.9258587724036038 4.757436759369934 0 1 0
1190 11 7 -0.68 15.20374829962258 5.612604177191938 -0.042292658010516515 0 0 1
208 6 5 0.424 18.29520365267249 5.937656715640596 3.934258471285557 0 0 0
249 5 5 0.424 15.887653780873881 -1.8482511284113718 6.877768604667105 0 0 0
941 5 6 -0.5091 14.466423783043977 0.6570275793338003 -0.12244364741143937 0 0 1
194 6 4 0.063 17.204712260225932 4.26289019136647 -0.08486377288232583 0 0 0
253 7 3 0.243 -0.16172177404041843 7.749498777678324 0.3804648930834912 0 0 0
254 7 4 0.063 0.8904660855913944 8.008828166992963 0.6136203497856038 0 0 0
273 8 1 0.213 2.5122690996688215 10.663617713744259 1.8120101968306728 0 0 0
274 8 4 0.063 1.4225546715211186 10.71409668157061 1.9794085692057828 0 0 0
287 8 6 -0.5091 2.321360398357343 13.057086596771521 2.379813119905871 0 0 0
290 7 5 0.424 -0.9983418583248018 11.037865725738245 6.001541783709371 0 0 0
291 7 5 0.424 -1.2020829362947851 9.921907408094503 1.4658644462159227 0 0 0
295 7 3 0.243 -0.6696996366461685 8.428465887920675 5.612228667147289 0 0 0
296 7 4 0.063 -1.7222406585458525 8.172904408839516 5.741842301721954 0 0 0
297 7 1 0.213 -0.5974518870130112 9.66413791804402 4.680699354206709 0 0 0
298 7 4 0.063 0.4850594380579687 9.791965706251379 4.793374590552006 0 0 0
299 7 1 0.213 -1.0968192017907 9.222377077722895 3.30956657569755 0 0 0
300 7 4 0.063 -2.1579315691393264 8.943158648806676 3.5621388851368976 0 0 0
301 7 1 0.213 -0.3097377384930642 7.8771648015408235 2.8378143260719413 0 0 0
302 7 4 0.063 0.8052862765897117 8.093299249582527 2.771858551074315 0 0 0
303 7 1 0.213 -0.5041260675092476 6.826210790737795 3.914736913551258 0 0 0
304 7 4 0.063 -1.5700240563242631 6.560577820272936 4.026396522047344 0 0 0
308 7 7 -0.68 -1.3497872702639158 10.768429967203971 5.130215333056871 0 0 0
309 7 7 -0.68 -0.9497588370784589 10.279344424578921 2.3433293614176076 0 0 0
310 7 6 -0.5091 -0.8430361348128081 7.418901681201495 1.6145085369777732 0 0 0
311 7 6 -0.5091 0.0019090343579573066 7.2968314628755735 5.210474069755631 0 0 0
317 8 1 0.213 2.409302518245542 13.394331892429477 5.711286833853917 0 0 0
318 8 4 0.063 1.2739605934086082 13.362510423663812 5.694027545183556 0 0 0
328 8 6 -0.5091 2.1110054191415832 11.588190228418606 4.075557434388635 0 0 0
440 12 4 0.063 -3.4504636498976584 11.692478805556885 3.014129376824912 1 0 0
448 12 4 0.063 -3.2576986283635394 13.578255205704153 1.1636010342914855 1 0 0
488 12 4 0.063 -3.4584249756219436 12.13910609149757 4.916534861844284 1 0 0
541 13 5 0.424 -1.091944818195869 12.048566212781775 2.8751208040634855 0 0 0
557 13 2 0.2503 -0.7902169824126302 13.669946278587844 3.707880922824801 0 0 0
559 13 4 0.063 -1.0247389087137484 13.141510402818417 4.659223653512721 0 0 0