LAMMPS data file via write_data, version 27 Jun 2024, timestep = 1000000, units = real

1512 atoms
7 atom types
1584 bonds
11 bond types
2952 angles
23 angle types
4752 dihedrals
39 dihedral types
1728 impropers
17 improper types

-2.4877125113042595 19.608987711305716 xlo xhi
-2.1196712141676404 22.48834501916678 ylo yhi
-0.1602144932064693 21.001080719209 zlo zhi
-2.825484781503794 0 0 xy xz yz

Atom Type Labels

1 c1
2 c2
3 coh
4 hc
5 ho
6 oc
7 oh

Bond Type Labels

1 c1-c1
2 c1-c2
3 c1-coh
4 c1-hc
5 c1-oc
6 c1-oh
7 c2-hc
8 c2-oh
9 coh-hc
10 coh-oc
11 ho-oh

Angle Type Labels

1 c1-c1-c1
2 c1-c1-c2
3 c1-c1-coh
4 c1-c1-hc
5 c1-c1-oc
6 c1-c1-oh
7 c1-c2-hc
8 c1-c2-oh
9 c1-coh-hc
10 c1-coh-oc
11 c1-oc-coh
12 c1-oh-ho
13 c2-c1-hc
14 c2-c1-oc
15 c2-oh-ho
16 coh-c1-hc
17 coh-c1-oh
18 hc-c1-oc
19 hc-c1-oh
20 hc-c2-hc
21 hc-c2-oh
22 hc-coh-oc
23 oc-coh-oc

Dihedral Type Labels

1 c1-c1-c1-c1
2 c1-c1-c1-c2
3 c1-c1-c1-coh
4 hc-c1-c1-hc
5 c1-c1-c1-hc
6 c2-c1-c1-hc
7 coh-c1-c1-hc
8 c1-c1-c1-oc
9 c2-c1-c1-oc
10 oc-c1-c1-oc
11 hc-c1-c1-oc
12 coh-c1-c1-oh
13 oc-c1-c1-oh
14 c1-c1-c1-oh
15 hc-c1-c1-oh
16 oh-c1-c1-oh
17 hc-c1-c2-hc
18 c1-c1-c2-hc
19 oc-c1-c2-oh
20 c1-c1-c2-oh
21 hc-c1-c2-oh
22 hc-c1-coh-hc
23 c1-c1-coh-hc
24 c1-c1-coh-oc
25 hc-c1-coh-oc
26 c2-c1-oc-coh
27 c1-c1-oc-coh
28 c1-c1-oh-ho
29 hc-c1-oh-ho
30 coh-c1-oh-ho
31 hc-c2-c1-oc
32 c1-c2-oh-ho
33 hc-c2-oh-ho
34 oc-coh-c1-oh
35 hc-coh-c1-oh
36 c1-coh-oc-c1
37 hc-c1-oc-coh
38 hc-coh-oc-c1
39 oc-coh-oc-c1

Improper Type Labels

1 c1-c1-c1-hc-nb!=3
2 c1-c1-c1-oc-nb!=3
3 c1-c1-c1-oh-nb!=3
4 c1-c1-c2-hc-nb!=3
5 c1-c1-c2-oc-nb!=3
6 c1-c1-coh-hc-nb!=3
7 c1-c1-coh-oh-nb!=3
8 c1-c1-hc-oc-nb!=3
9 c1-c1-hc-oh-nb!=3
10 c1-c2-hc-hc-nb!=3
11 c1-c2-hc-oh-nb!=3
12 c1-coh-hc-oc-nb!=3
13 c1-coh-oc-oc-nb!=3
14 c2-c1-hc-oc-nb!=3
15 coh-c1-hc-oh-nb!=3
16 hc-c2-hc-oh-nb!=3
17 hc-coh-oc-oc-nb!=3

Masses

1 12.01115
2 12.01115
3 12.01115
4 1.00797
5 1.00797
6 15.9994
7 15.9994

Pair Coeffs # lj/class2/coul/long

1 0.054 4.01
2 0.054 4.01
3 0.054 4.01
4 0.02 2.3
5 0.013 1.098
6 0.24 3.535
7 0.24 3.535

Bond Coeffs # morse

1 82.6961 2 1.53
2 82.6961 2 1.53
3 82.6961 2 1.53
4 98.2315 2 1.101
5 85.5641 2.3 1.42
6 85.5641 2.3 1.42
7 98.2315 2 1.101
8 85.5641 2.3 1.42
9 98.2315 2 1.101
10 85.5641 2.3 1.42
11 109.704 2.3 0.965

Angle Coeffs # class2xe

1 112.67 39.516 -7.443 -9.5583
2 112.67 39.516 -7.443 -9.5583
3 112.67 39.516 -7.443 -9.5583
4 110.77 41.453 -10.604 5.129
5 111.27 54.5381 -8.3642 -13.0838
6 111.27 54.5381 -8.3642 -13.0838
7 110.77 41.453 -10.604 5.129
8 111.27 54.5381 -8.3642 -13.0838
9 110.77 41.453 -10.604 5.129
10 111.27 54.5381 -8.3642 -13.0838
11 104.5 35.7454 -10.0067 -6.2729
12 105.8 52.7061 -12.109 -9.8681
13 110.77 41.453 -10.604 5.129
14 111.27 54.5381 -8.3642 -13.0838
15 105.8 52.7061 -12.109 -9.8681
16 110.77 41.453 -10.604 5.129
17 111.27 54.5381 -8.3642 -13.0838
18 108.728 58.5446 -10.8088 -12.4006
19 108.728 58.5446 -10.8088 -12.4006
20 107.66 39.641 -12.921 -2.4318
21 108.728 58.5446 -10.8088 -12.4006
22 108.728 58.5446 -10.8088 -12.4006
23 109.5 70 0 0

BondBond Coeffs

1 82.6961 0 1.53 1.53
2 82.6961 0 1.53 1.53
3 82.6961 0 1.53 1.53
4 90.4638 0.136826 1.53 1.101
5 84.1301 0.260655 1.53 1.42
6 84.1301 0.260655 1.53 1.42
7 90.4638 0.136826 1.53 1.101
8 84.1301 0.260655 1.53 1.42
9 90.4638 0.136826 1.53 1.101
10 84.1301 0.260655 1.53 1.42
11 85.5641 0.203877 1.42 1.42
12 97.6339 0.222741 1.42 0.965
13 90.4638 0.136826 1.53 1.101
14 84.1301 0.260655 1.53 1.42
15 97.6339 0.222741 1.42 0.965
16 90.4638 0.136826 1.53 1.101
17 84.1301 0.260655 1.53 1.42
18 91.8978 0.355269 1.101 1.42
19 91.8978 0.355269 1.101 1.42
20 98.2315 0.164736 1.101 1.101
21 91.8978 0.355269 1.101 1.42
22 91.8978 0.355269 1.101 1.42
23 85.5641 0 1.42 1.42

BondAngle Coeffs

1 82.6961 82.6961 0.220151 0.220151 1.53 1.53
2 82.6961 82.6961 0.220151 0.220151 1.53 1.53
3 82.6961 82.6961 0.220151 0.220151 1.53 1.53
4 82.6961 98.2315 0.354237 0.241108 1.53 1.101
5 82.6961 85.5641 0.127456 0.345294 1.53 1.42
6 82.6961 85.5641 0.127456 0.345294 1.53 1.42
7 82.6961 98.2315 0.354237 0.241108 1.53 1.101
8 82.6961 85.5641 0.127456 0.345294 1.53 1.42
9 82.6961 98.2315 0.354237 0.241108 1.53 1.101
10 82.6961 85.5641 0.127456 0.345294 1.53 1.42
11 85.5641 85.5641 0.12817 0.12817 1.42 1.42
12 85.5641 109.704 0.408668 0.293713 1.42 0.965
13 82.6961 98.2315 0.354237 0.241108 1.53 1.101
14 82.6961 85.5641 0.127456 0.345294 1.53 1.42
15 85.5641 109.704 0.408668 0.293713 1.42 0.965
16 82.6961 98.2315 0.354237 0.241108 1.53 1.101
17 82.6961 85.5641 0.127456 0.345294 1.53 1.42
18 98.2315 85.5641 0.153331 0.568601 1.101 1.42
19 98.2315 85.5641 0.153331 0.568601 1.101 1.42
20 98.2315 98.2315 0.303553 0.303553 1.101 1.101
21 98.2315 85.5641 0.153331 0.568601 1.101 1.42
22 98.2315 85.5641 0.153331 0.568601 1.101 1.42
23 85.5641 85.5641 0 0 1.42 1.42

Dihedral Coeffs # class2xe

1 0 0 0.0514 0 -0.143 0
2 0 0 0.0514 0 -0.143 0
3 0 0 0.0514 0 -0.143 0
4 -0.1432 0 0.0617 0 -0.1083 0
5 0 0 0.0316 0 -0.1681 0
6 0 0 0.0316 0 -0.1681 0
7 0 0 0.0316 0 -0.1681 0
8 0.7137 0 0.266 0 -0.2545 0
9 0.7137 0 0.266 0 -0.2545 0
10 -0.182 0 -0.1084 0 -0.7047 0
11 -0.1435 0 0.253 0 -0.0905 0
12 0.7137 0 0.266 0 -0.2545 0
13 -0.182 0 -0.1084 0 -0.7047 0
14 0.7137 0 0.266 0 -0.2545 0
15 -0.1435 0 0.253 0 -0.0905 0
16 -0.182 0 -0.1084 0 -0.7047 0
17 -0.1432 0 0.0617 0 -0.1083 0
18 0 0 0.0316 0 -0.1681 0
19 -0.182 0 -0.1084 0 -0.7047 0
20 0.7137 0 0.266 0 -0.2545 0
21 -0.1435 0 0.253 0 -0.0905 0
22 -0.1432 0 0.0617 0 -0.1083 0
23 0 0 0.0316 0 -0.1681 0
24 0.7137 0 0.266 0 -0.2545 0
25 -0.1435 0 0.253 0 -0.0905 0
26 -0.5203 0 -0.3028 0 -0.345 0
27 -0.5203 0 -0.3028 0 -0.345 0
28 -0.6732 0 -0.4778 0 -0.167 0
29 0.1863 0 -0.4338 0 -0.2121 0
30 -0.6732 0 -0.4778 0 -0.167 0
31 -0.1435 0 0.253 0 -0.0905 0
32 -0.6732 0 -0.4778 0 -0.167 0
33 0.1863 0 -0.4338 0 -0.2121 0
34 -0.182 0 -0.1084 0 -0.7047 0
35 -0.1435 0 0.253 0 -0.0905 0
36 -0.5203 0 -0.3028 0 -0.345 0
37 0.5302 0 0 0 -0.3966 0
38 0.5302 0 0 0 -0.3966 0
39 0 0 0 0 0.13 0

AngleAngleTorsion Coeffs

1 -22.045 112.67 112.67
2 -22.045 112.67 112.67
3 -22.045 112.67 112.67
4 -12.564 110.77 110.77
5 -16.164 112.67 110.77
6 -16.164 112.67 110.77
7 -16.164 112.67 110.77
8 -29.042 112.67 111.27
9 -29.042 112.67 111.27
10 -14.0484 111.27 111.27
11 -20.2006 110.77 111.27
12 -29.042 112.67 111.27
13 -14.0484 111.27 111.27
14 -29.042 112.67 111.27
15 -20.2006 110.77 111.27
16 -14.0484 111.27 111.27
17 -12.564 110.77 110.77
18 -16.164 112.67 110.77
19 -14.0484 111.27 111.27
20 -29.042 112.67 111.27
21 -20.2006 110.77 111.27
22 -12.564 110.77 110.77
23 -16.164 112.67 110.77
24 -29.042 112.67 111.27
25 -20.2006 110.77 111.27
26 -19.0059 111.27 104.5
27 -19.0059 111.27 104.5
28 -12.1038 111.27 105.8
29 -10.5093 108.728 105.8
30 -12.1038 111.27 105.8
31 -20.2006 110.77 111.27
32 -12.1038 111.27 105.8
33 -10.5093 108.728 105.8
34 -14.0484 111.27 111.27
35 -20.2006 110.77 111.27
36 -19.0059 111.27 104.5
37 -16.4438 108.728 104.5
38 -16.4438 108.728 104.5
39 0 109.5 104.5

EndBondTorsion Coeffs

1 2 2 -0.0732 0 0 -0.0732 0 0 1.53 1.53
2 2 2 -0.0732 0 0 -0.0732 0 0 1.53 1.53
3 2 2 -0.0732 0 0 -0.0732 0 0 1.53 1.53
4 2 2 0.213 0.312 0.0777 0.213 0.312 0.0777 1.101 1.101
5 2 2 0.2486 0.2422 -0.0925 0.0814 0.0591 0.2219 1.53 1.101
6 2 2 0.2486 0.2422 -0.0925 0.0814 0.0591 0.2219 1.53 1.101
7 2 2 0.2486 0.2422 -0.0925 0.0814 0.0591 0.2219 1.53 1.101
8 2 2.3 -0.319 0.4411 -0.7174 1.1538 0.8409 -0.9138 1.53 1.42
9 2 2.3 -0.319 0.4411 -0.7174 1.1538 0.8409 -0.9138 1.53 1.42
10 2.3 2.3 1.0165 0.7553 -0.4609 1.0165 0.7553 -0.4609 1.42 1.42
11 2 2.3 0.9681 0.9551 0.0436 0.5903 0.6669 0.8584 1.101 1.42
12 2 2.3 -0.319 0.4411 -0.7174 1.1538 0.8409 -0.9138 1.53 1.42
13 2.3 2.3 1.0165 0.7553 -0.4609 1.0165 0.7553 -0.4609 1.42 1.42
14 2 2.3 -0.319 0.4411 -0.7174 1.1538 0.8409 -0.9138 1.53 1.42
15 2 2.3 0.9681 0.9551 0.0436 0.5903 0.6669 0.8584 1.101 1.42
16 2.3 2.3 1.0165 0.7553 -0.4609 1.0165 0.7553 -0.4609 1.42 1.42
17 2 2 0.213 0.312 0.0777 0.213 0.312 0.0777 1.101 1.101
18 2 2 0.2486 0.2422 -0.0925 0.0814 0.0591 0.2219 1.53 1.101
19 2.3 2.3 1.0165 0.7553 -0.4609 1.0165 0.7553 -0.4609 1.42 1.42
20 2 2.3 -0.319 0.4411 -0.7174 1.1538 0.8409 -0.9138 1.53 1.42
21 2 2.3 0.9681 0.9551 0.0436 0.5903 0.6669 0.8584 1.101 1.42
22 2 2 0.213 0.312 0.0777 0.213 0.312 0.0777 1.101 1.101
23 2 2 0.2486 0.2422 -0.0925 0.0814 0.0591 0.2219 1.53 1.101
24 2 2.3 -0.319 0.4411 -0.7174 1.1538 0.8409 -0.9138 1.53 1.42
25 2 2.3 0.9681 0.9551 0.0436 0.5903 0.6669 0.8584 1.101 1.42
26 2 2.3 -0.2456 1.0517 -0.7795 0.4741 1.2635 0.5576 1.53 1.42
27 2 2.3 -0.2456 1.0517 -0.7795 0.4741 1.2635 0.5576 1.53 1.42
28 2 2.3 -0.58 0.9004 0 0 0.5343 0.9025 1.53 0.965
29 2 2.3 -1.7554 1.3145 0.2263 0.2493 0.6803 0 1.101 0.965
30 2 2.3 -0.58 0.9004 0 0 0.5343 0.9025 1.53 0.965
31 2 2.3 0.9681 0.9551 0.0436 0.5903 0.6669 0.8584 1.101 1.42
32 2 2.3 -0.58 0.9004 0 0 0.5343 0.9025 1.53 0.965
33 2 2.3 -1.7554 1.3145 0.2263 0.2493 0.6803 0 1.101 0.965
34 2.3 2.3 1.0165 0.7553 -0.4609 1.0165 0.7553 -0.4609 1.42 1.42
35 2 2.3 0.9681 0.9551 0.0436 0.5903 0.6669 0.8584 1.101 1.42
36 2 2.3 -0.2456 1.0517 -0.7795 0.4741 1.2635 0.5576 1.53 1.42
37 2 2.3 -0.6054 1.3339 0.9648 -0.162 0.1564 -1.1408 1.101 1.42
38 2 2.3 -0.6054 1.3339 0.9648 -0.162 0.1564 -1.1408 1.101 1.42
39 2.3 2.3 0 0 0 0 0 0 1.42 1.42

MiddleBondTorsion Coeffs

1 2 -17.787 -7.1877 0 1.53
2 2 -17.787 -7.1877 0 1.53
3 2 -17.787 -7.1877 0 1.53
4 2 -14.261 -0.5322 -0.4864 1.53
5 2 -14.879 -3.6581 -0.3138 1.53
6 2 -14.879 -3.6581 -0.3138 1.53
7 2 -14.879 -3.6581 -0.3138 1.53
8 2 -21.8842 -7.6764 -0.6868 1.53
9 2 -21.8842 -7.6764 -0.6868 1.53
10 2 -17.2585 -3.6157 -0.8364 1.53
11 2 -16.7975 -1.2296 -0.275 1.53
12 2 -21.8842 -7.6764 -0.6868 1.53
13 2 -17.2585 -3.6157 -0.8364 1.53
14 2 -21.8842 -7.6764 -0.6868 1.53
15 2 -16.7975 -1.2296 -0.275 1.53
16 2 -17.2585 -3.6157 -0.8364 1.53
17 2 -14.261 -0.5322 -0.4864 1.53
18 2 -14.879 -3.6581 -0.3138 1.53
19 2 -17.2585 -3.6157 -0.8364 1.53
20 2 -21.8842 -7.6764 -0.6868 1.53
21 2 -16.7975 -1.2296 -0.275 1.53
22 2 -14.261 -0.5322 -0.4864 1.53
23 2 -14.879 -3.6581 -0.3138 1.53
24 2 -21.8842 -7.6764 -0.6868 1.53
25 2 -16.7975 -1.2296 -0.275 1.53
26 2.3 -5.9288 -2.7007 -0.3175 1.42
27 2.3 -5.9288 -2.7007 -0.3175 1.42
28 2.3 1.2472 0 0.7485 1.42
29 2.3 0 0.9241 -0.5889 1.42
30 2.3 1.2472 0 0.7485 1.42
31 2 -16.7975 -1.2296 -0.275 1.53
32 2.3 1.2472 0 0.7485 1.42
33 2.3 0 0.9241 -0.5889 1.42
34 2 -17.2585 -3.6157 -0.8364 1.53
35 2 -16.7975 -1.2296 -0.275 1.53
36 2.3 -5.9288 -2.7007 -0.3175 1.42
37 2.3 -6.8007 -4.6546 -1.4101 1.42
38 2.3 -6.8007 -4.6546 -1.4101 1.42
39 2.3 0 0 0 1.42

BondBond13 Coeffs

1 82.6961 0 1.53 1.53
2 82.6961 0 1.53 1.53
3 82.6961 0 1.53 1.53
4 98.2315 0 1.101 1.101
5 90.4638 0 1.53 1.101
6 90.4638 0 1.53 1.101
7 90.4638 0 1.53 1.101
8 84.1301 0 1.53 1.42
9 84.1301 0 1.53 1.42
10 85.5641 0 1.42 1.42
11 91.8978 0 1.101 1.42
12 84.1301 0 1.53 1.42
13 85.5641 0 1.42 1.42
14 84.1301 0 1.53 1.42
15 91.8978 0 1.101 1.42
16 85.5641 0 1.42 1.42
17 98.2315 0 1.101 1.101
18 90.4638 0 1.53 1.101
19 85.5641 0 1.42 1.42
20 84.1301 0 1.53 1.42
21 91.8978 0 1.101 1.42
22 98.2315 0 1.101 1.101
23 90.4638 0 1.53 1.101
24 84.1301 0 1.53 1.42
25 91.8978 0 1.101 1.42
26 84.1301 0 1.53 1.42
27 84.1301 0 1.53 1.42
28 96.2 0 1.53 0.965
29 103.968 0 1.101 0.965
30 96.2 0 1.53 0.965
31 91.8978 0 1.101 1.42
32 96.2 0 1.53 0.965
33 103.968 0 1.101 0.965
34 85.5641 0 1.42 1.42
35 91.8978 0 1.101 1.42
36 84.1301 0 1.53 1.42
37 91.8978 0 1.101 1.42
38 91.8978 0 1.101 1.42
39 85.5641 0 1.42 1.42

AngleTorsion Coeffs

1 0.3886 -0.3139 0.1389 0.3886 -0.3139 0.1389 112.67 112.67
2 0.3886 -0.3139 0.1389 0.3886 -0.3139 0.1389 112.67 112.67
3 0.3886 -0.3139 0.1389 0.3886 -0.3139 0.1389 112.67 112.67
4 -0.8085 0.5569 -0.2466 -0.8085 0.5569 -0.2466 110.77 110.77
5 -0.2454 0 -0.1136 0.3113 0.4516 -0.1988 112.67 110.77
6 -0.2454 0 -0.1136 0.3113 0.4516 -0.1988 112.67 110.77
7 -0.2454 0 -0.1136 0.3113 0.4516 -0.1988 112.67 110.77
8 0.5623 -0.3041 -0.4015 0.9672 -0.7566 -1.2331 112.67 111.27
9 0.5623 -0.3041 -0.4015 0.9672 -0.7566 -1.2331 112.67 111.27
10 0.5511 0.9737 -0.6673 0.5511 0.9737 -0.6673 111.27 111.27
11 2.3668 2.492 -1.0122 -0.1892 0.4918 0.7273 110.77 111.27
12 0.5623 -0.3041 -0.4015 0.9672 -0.7566 -1.2331 112.67 111.27
13 0.5511 0.9737 -0.6673 0.5511 0.9737 -0.6673 111.27 111.27
14 0.5623 -0.3041 -0.4015 0.9672 -0.7566 -1.2331 112.67 111.27
15 2.3668 2.492 -1.0122 -0.1892 0.4918 0.7273 110.77 111.27
16 0.5511 0.9737 -0.6673 0.5511 0.9737 -0.6673 111.27 111.27
17 -0.8085 0.5569 -0.2466 -0.8085 0.5569 -0.2466 110.77 110.77
18 -0.2454 0 -0.1136 0.3113 0.4516 -0.1988 112.67 110.77
19 0.5511 0.9737 -0.6673 0.5511 0.9737 -0.6673 111.27 111.27
20 0.5623 -0.3041 -0.4015 0.9672 -0.7566 -1.2331 112.67 111.27
21 2.3668 2.492 -1.0122 -0.1892 0.4918 0.7273 110.77 111.27
22 -0.8085 0.5569 -0.2466 -0.8085 0.5569 -0.2466 110.77 110.77
23 -0.2454 0 -0.1136 0.3113 0.4516 -0.1988 112.67 110.77
24 0.5623 -0.3041 -0.4015 0.9672 -0.7566 -1.2331 112.67 111.27
25 2.3668 2.492 -1.0122 -0.1892 0.4918 0.7273 110.77 111.27
26 -2.7466 1.4877 -0.8955 0.5676 0.945 0.0703 111.27 104.5
27 -2.7466 1.4877 -0.8955 0.5676 0.945 0.0703 111.27 104.5
28 -3.5903 2.5225 0.4888 0.8726 -0.3577 0.3888 111.27 105.8
29 -3.406 1.6396 0.0737 0 -0.281 -0.5944 108.728 105.8
30 -3.5903 2.5225 0.4888 0.8726 -0.3577 0.3888 111.27 105.8
31 2.3668 2.492 -1.0122 -0.1892 0.4918 0.7273 110.77 111.27
32 -3.5903 2.5225 0.4888 0.8726 -0.3577 0.3888 111.27 105.8
33 -3.406 1.6396 0.0737 0 -0.281 -0.5944 108.728 105.8
34 0.5511 0.9737 -0.6673 0.5511 0.9737 -0.6673 111.27 111.27
35 2.3668 2.492 -1.0122 -0.1892 0.4918 0.7273 110.77 111.27
36 -2.7466 1.4877 -0.8955 0.5676 0.945 0.0703 111.27 104.5
37 -1.8234 1.6393 0.5144 -0.7777 0.434 -0.6653 108.728 104.5
38 -1.8234 1.6393 0.5144 -0.7777 0.434 -0.6653 108.728 104.5
39 0 0 0 0 0 0 109.5 104.5

Improper Coeffs # class2

1 0 0
2 0 0
3 0 0
4 0 0
5 0 0
6 0 0
7 0 0
8 0 0
9 0 0
10 0 0
11 0 0
12 0 0
13 0 0
14 0 0
15 0 0
16 0 0
17 0 0

AngleAngle Coeffs

1 -1.3199 -1.3199 0.1184 112.67 110.77 110.77
2 -0.833 -0.833 -3.5744 112.67 111.27 111.27
3 -0.833 -0.833 -3.5744 112.67 111.27 111.27
4 -1.3199 -1.3199 0.1184 112.67 110.77 110.77
5 -0.833 -0.833 -3.5744 112.67 111.27 111.27
6 -1.3199 -1.3199 0.1184 112.67 110.77 110.77
7 -0.833 -0.833 -3.5744 112.67 111.27 111.27
8 3.9177 2.5926 0.1689 110.77 111.27 108.728
9 3.9177 2.5926 0.1689 110.77 111.27 108.728
10 0.2738 -0.4825 0.2738 110.77 110.77 107.66
11 3.9177 2.5926 0.1689 110.77 111.27 108.728
12 3.9177 2.5926 0.1689 110.77 111.27 108.728
13 0 0 0 111.27 109.5 111.27
14 3.9177 2.5926 0.1689 110.77 111.27 108.728
15 3.9177 2.5926 0.1689 110.77 111.27 108.728
16 2.4259 2.4259 2.1283 107.66 108.728 108.728
17 0 0 0 108.728 109.5 108.728

Atoms # full

1 1 3 0.243 0.594704395741287 -0.3539410269550649 0.4154637404271755 0 0 0
2 1 4 0.063 1.6734557277887099 -0.1678480528023465 0.6284482141311281 0 0 0
22 2 4 0.063 2.3430846161615486 2.655711420152733 1.82875008878087 0 0 0
38 1 5 0.424 -0.2742537155525224 2.701996966671498 6.097928536961747 0 0 0
39 1 5 0.424 -0.1525423730549842 1.712419064687308 1.4844864817417744 0 0 0
43 1 3 0.243 0.2539976903682408 0.2519185858036117 5.72852540481543 0 0 0
44 1 4 0.063 -0.8110061947666747 -0.01795451260895975 5.901174416933164 0 0 0
45 1 1 0.213 0.33119366760686386 1.4211497159708228 4.75138338291284 0 0 0
46 1 4 0.063 1.3614521169876377 1.7944724109885537 4.73266490431837 0 0 0
47 1 1 0.213 -0.10623253251588416 1.0418162956249128 3.30545946816155 0 0 0
48 1 4 0.063 -1.1840056988329457 0.9150928436659118 3.3312411519633023 0 0 0
49 1 1 0.213 0.5101565597692095 -0.2517755675736495 2.8242238843861474 0 0 0
50 1 4 0.063 1.6341054884923798 -0.10525112478228671 2.7310345165166243 0 0 0
51 1 1 0.213 0.45959836801338305 -1.3097460297220023 3.9784484754459193 0 0 0
56 1 7 -0.68 -0.5147616386909668 2.5323451054307258 5.156422020216241 0 0 0
57 1 7 -0.68 0.14303994772348538 2.1043585934453146 2.3453995463197606 0 0 0
58 1 6 -0.5091 -0.04686423808079532 -0.737127269308782 1.6069913372356044 0 0 0
59 1 6 -0.5091 1.0029607656571708 -0.8535970176286292 5.227967962472085 0 0 0
66 2 4 0.063 2.3058930672364752 5.177330167125184 5.922121160656876 0 0 0
188 6 4 0.063 -2.55123183174974 3.742810560789887 3.0122560525807214 1 0 0
192 6 4 0.063 -2.2591470342938456 2.942577409853776 0.4355084641261283 1 0 0
196 6 4 0.063 -2.4876668624791565 5.4978493535022706 1.5042895644239827 1 0 0
236 6 4 0.063 -2.670255262525596 3.734571932954288 4.933168039308479 1 0 0
289 7 5 0.424 -0.03907732263052255 3.882036035455961 2.6670427900770135 0 0 0
305 7 2 0.2503 0.17993360720977192 5.526876372107299 3.682999892765944 0 0 0
307 7 4 0.063 0.015572387338018245 4.949138622187048 4.6000807541935265 0 0 0
312 7 7 -0.68 -0.36662103169794324 4.806981348486338 2.5748113164244653 0 0 0
332 7 5 0.424 0.10184871181563704 5.401681421357464 0.8358726588211414 0 0 0
52 1 4 0.063 -0.6261197029759842 -1.494455155905921 4.102730854227929 0 0 0
70 2 4 0.063 2.428987981241365 2.706478950890226 6.440857875882648 0 0 0
306 7 4 0.063 1.2249823552041579 5.75056755842165 3.4825843339021603 0 0 0
1022 7 7 -0.68 0.40396794575879635 5.503116677855725 -0.0968168285789591 0 0 1
81 1 5 0.424 1.1251280100655499 -1.7804300027250055 6.866151911132471 0 0 0
773 1 6 -0.5091 -0.04562440428346459 0.7957277473857456 -0.07611828326901714 0 0 1
240 6 4 0.063 -2.210204006401129 1.4747630639346005 6.217676812064133 1 0 0
26 2 4 0.063 2.4333895122804314 4.238955945990015 -0.13594360035275094 0 0 0
76 2 6 -0.5091 3.0271481509505955 3.317487524383073 4.127313024490223 0 0 0
534 14 4 0.063 3.2264412713846413 -1.463426519243177 0.9122603346901941 0 1 0
35 2 6 -0.5091 3.201630247975369 4.82226131513197 2.343525664092201 0 0 0
21 2 1 0.213 3.4320606619287535 2.475823718206742 1.82829426750722 0 0 0
42 2 5 0.424 3.880511625427344 -0.28536016322161606 5.237548196030981 0 0 0
65 2 1 0.213 3.3665243754663647 5.1813682771768015 5.719703453057873 0 0 0
78 2 7 -0.68 3.7365872507790696 0.64993248202101 4.975795124845882 0 0 0
19 2 3 0.243 3.711830044973367 3.637021387420476 2.7604466166739656 0 0 0
20 2 4 0.063 4.799170161021172 3.772674696311298 2.8469096365990545 0 0 0
23 2 1 0.213 4.019343751034081 2.828967180176889 0.4702245341473177 0 0 0
24 2 4 0.063 5.117730028716311 2.876155809929288 0.34824824386354136 0 0 0
27 2 1 0.213 3.8408500976394295 5.312000651811656 1.1463658277291937 0 0 0
28 2 4 0.063 4.997086409256578 5.345717413079869 1.185219545735147 0 0 0
32 2 7 -0.68 3.885823949483189 1.2356837139890198 2.230756813803074 0 0 0
67 2 1 0.213 3.7440755588395103 3.717663846280515 5.285545852100997 0 0 0
68 2 4 0.063 4.80335315529578 3.875023286675896 4.991728148276147 0 0 0
71 2 2 0.2503 3.900402127869036 1.2319330709123468 6.192410695816039 0 0 0
83 2 5 0.424 3.8014711061452697 1.2602104419539772 3.2055569526058596 0 0 0
85 3 3 0.243 7.96533427007844 -0.40269504112522436 0.4451486782067673 0 0 0
86 3 4 0.063 8.99145774579623 -0.18820156000807775 0.7571399054696549 0 0 0
105 4 1 0.213 10.804706722728026 2.5418414241354377 1.837164797451984 0 0 0
106 4 4 0.063 9.665214921513504 2.451855414970627 1.555590910400316 0 0 0
119 4 6 -0.5091 10.644884946488443 4.946288148245202 2.305031065188272 0 0 0
122 3 5 0.424 7.2153627790955035 2.8277333208607427 5.999649002915674 0 0 0
123 3 5 0.424 7.027399394963517 1.6898155860824962 1.5279910610108747 0 0 0
127 3 3 0.243 7.615922002359584 0.261803284448455 5.696420108848536 0 0 0
128 3 4 0.063 6.56082917990593 0.01568569232606931 5.8082712140810155 0 0 0
129 3 1 0.213 7.706977750331838 1.4459615892305355 4.67524050610003 0 0 0
130 3 4 0.063 8.698899776361486 1.8318125245733206 4.4061847753953165 0 0 0
131 3 1 0.213 7.2829112956698285 0.9888945666662532 3.2854782371931615 0 0 0
132 3 4 0.063 6.209695261543889 0.7553344623518692 3.3717934725249203 0 0 0
133 3 1 0.213 7.915012559106655 -0.2940411592375707 2.864238538533167 0 0 0
134 3 4 0.063 9.020349997560132 -0.252970989135068 2.7144896125738063 0 0 0
135 3 1 0.213 7.801972189439539 -1.3794713696022565 3.9656753612608533 0 0 0
136 3 4 0.063 6.723864677605043 -1.561440206903859 4.155611995449735 0 0 0
140 3 7 -0.68 6.877827368708521 2.5244376986109645 5.132182368655426 0 0 0
141 3 7 -0.68 7.416525211996616 2.070792481109711 2.3544416241438513 0 0 0
142 3 6 -0.5091 7.264296376241603 -0.7853449979883109 1.6593370069249103 0 0 0
143 3 6 -0.5091 8.330928799943532 -0.8612411043649104 5.204153691702881 0 0 0
149 4 1 0.213 10.763726066517293 5.227108055496521 5.824578367989267 0 0 0
150 4 4 0.063 9.620616759535531 5.2821991519801 5.869887652026742 0 0 0
160 4 6 -0.5091 10.449509886089718 3.408032790102773 4.167375825766024 0 0 0
373 9 5 0.424 7.269036107796481 3.8588702311721486 2.759463514725404 0 0 0
389 9 2 0.2503 7.583404499556565 5.619084066726148 3.6436053587384927 0 0 0
391 9 4 0.063 7.645974360418682 4.988664998035603 4.5400923109897935 0 0 0
396 9 7 -0.68 6.926393097452511 4.776702735248192 2.623864051916188 0 0 0
416 9 5 0.424 7.549018906121235 5.34037844070182 0.8397488440524778 0 0 0
533 14 2 0.2503 4.324150617011688 -1.4792552930254734 0.8405505521722778 0 1 0
535 14 4 0.063 4.752916769003542 -0.9090660889379003 1.6726239074512486 0 1 0
153 4 1 0.213 10.77886045657134 2.788678393281832 6.406819633361389 0 0 0
69 2 1 0.213 3.5317014842210064 2.6786802051897283 6.411574067196946 0 0 0
618 16 4 0.063 10.4650719767795 -1.645854474241596 1.2278128833946635 0 1 0
390 9 4 0.063 8.647783118766752 5.886076739960458 3.407889111790851 0 0 0
103 4 3 0.243 11.080730704719166 3.6985006292981035 2.8754454481889136 0 0 0
579 14 7 -0.68 4.605538248117089 -1.980987032793773 4.685151989296861 0 1 0
72 2 4 0.063 4.998098069919859 1.1893978948316337 6.469564601297677 0 0 0
151 4 1 0.213 11.098762175258527 3.8264348695696375 5.30891912945449 0 0 0
154 4 4 0.063 9.635020100872591 2.7256565873017635 6.584522081917223 0 0 0
109 4 1 0.213 10.9203263834763 4.27784906024617 -0.04418949708734844 0 0 0
25 2 1 0.213 3.5157620516064023 4.265694501925095 -0.0029211339498923516 0 0 0
162 4 7 -0.68 11.092929629433693 0.6822763832513745 5.01263371603119 0 0 0
40 2 5 0.424 3.532311010637594 5.857698562858086 3.8967388191064565 0 0 0
857 3 6 -0.5091 7.267861172970893 0.7386724793858583 -0.10619612262656006 0 0 1
1106 9 7 -0.68 7.871127326526217 5.532244388036245 -0.0713094405847487 0 0 1
167 4 5 0.424 11.155566413903468 1.2610763140023038 3.1706559038775928 0 0 0
111 4 1 0.213 11.281678322823526 5.320714899307508 1.0711568465093992 0 0 0
165 3 5 0.424 8.455797366066415 -1.9436541175505073 6.7511294859350945 0 0 0
124 4 5 0.424 10.527939160515327 5.983192170798738 4.0830856854624535 0 0 0
126 4 5 0.424 11.106040449099021 -0.2766788905208768 5.1992321447404946 0 0 0
116 4 7 -0.68 11.26536732843016 1.3004816003195523 2.192984622852023 0 0 0
64 2 4 0.063 4.92071020800651 5.807243457469026 6.873062158194993 0 0 0
703 18 4 0.063 19.203002111545967 -0.8351062334774091 1.8333371070251043 0 1 0
155 4 2 0.2503 11.423218835038911 1.372061895869721 6.19304947343259 0 0 0
107 4 1 0.213 11.354706504484891 2.930745886854184 0.388805098501819 0 0 0
747 18 7 -0.68 19.35979998050138 -1.9442711855065329 4.826005015003047 0 1 0
195 6 1 0.213 18.58229775348796 5.259631538308203 1.2586267383398808 0 0 0
617 16 2 0.2503 11.555942100699653 -1.4942634586497188 1.0063101241863412 0 1 0
200 6 7 -0.68 18.89592329475202 1.2484805158682288 2.2816949644022584 0 0 0
191 6 1 0.213 18.72615994096456 2.823663710479299 0.43528519662956966 0 0 0
210 6 5 0.424 18.710271306502545 -0.27327233797673744 5.244484592066252 0 0 0
619 16 4 0.063 12.014413533832922 -0.9554740983116354 1.8848927025471114 0 1 0
251 6 5 0.424 18.577358527019417 1.2904426072928263 3.1875224440460963 0 0 0
235 6 1 0.213 18.433945059026257 3.839495277793521 5.2687166504434115 0 0 0
246 6 7 -0.68 18.353226969696493 0.615988671056475 5.004632390962918 0 0 0
239 6 2 0.2503 18.814849802452176 1.256999417026483 6.214728403588878 0 0 0
104 4 4 0.063 12.217833161010578 3.62890518447354 2.906329156901813 0 0 0
108 4 4 0.063 12.45911829571053 3.0043333114583186 0.5207621064337385 0 0 0
112 4 4 0.063 12.37832130612258 5.303929227298949 1.149781007185211 0 0 0
152 4 4 0.063 12.207303908344764 3.601620539770365 5.2929010332580235 0 0 0
169 5 3 0.243 15.386016724361355 -0.36068280408457376 0.4369920508684426 0 0 0
170 5 4 0.063 16.41980273373328 -0.10332139154017606 0.6937026033406446 0 0 0
187 6 3 0.243 18.43349085121123 3.5966573796215435 2.855568070649218 0 0 0
189 6 1 0.213 18.240007598498842 2.4686463456471346 1.843272308065262 0 0 0
190 6 4 0.063 17.13200802890106 2.2351027968298824 1.7791914495522478 0 0 0
203 6 6 -0.5091 17.915321662233904 4.883065410508218 2.310849742843446 0 0 0
206 5 5 0.424 14.653669963768174 2.7222901968881486 6.189216156893649 0 0 0
207 5 5 0.424 14.39603664523057 1.78823727906593 1.5327530210674667 0 0 0
211 5 3 0.243 14.9657660370199 0.2559084910294005 5.674575195619673 0 0 0
212 5 4 0.063 13.88049663278056 0.010968839764103233 5.804680092301041 0 0 0
213 5 1 0.213 15.017201479855437 1.4514128745966994 4.711487310645966 0 0 0
214 5 4 0.063 16.081326467604704 1.759468045996007 4.670473447195841 0 0 0
215 5 1 0.213 14.572337573096288 0.9972480322608863 3.2684330353282287 0 0 0
216 5 4 0.063 13.493659837559298 0.8489768463906713 3.4141816902092152 0 0 0
217 5 1 0.213 15.300310541176643 -0.25536466697069216 2.8342108332753266 0 0 0
218 5 4 0.063 16.361301776072338 -0.016026334087535954 2.7139950976522784 0 0 0
219 5 1 0.213 15.19380602871503 -1.2989483747718789 3.952653127955494 0 0 0
220 5 4 0.063 14.124857547737076 -1.5345027042577941 4.080436491695764 0 0 0
224 5 7 -0.68 14.308292082568837 2.5980490402924854 5.274880508507584 0 0 0
225 5 7 -0.68 14.764369765553365 2.1159075915761854 2.3728842656425915 0 0 0
226 5 6 -0.5091 14.683293462957973 -0.7013163861739495 1.6554484902188158 0 0 0
227 5 6 -0.5091 15.725524782951677 -0.8504506679468304 5.2201096814187435 0 0 0
233 6 1 0.213 17.979564507329272 5.224770835513395 5.739836669752706 0 0 0
234 6 4 0.063 16.917234814692186 5.382770552845978 5.710253756765085 0 0 0
244 6 6 -0.5091 17.69481621140758 3.358968650173159 4.157520628969461 0 0 0
457 11 5 0.424 14.829514708040698 3.8784908790199415 2.691912203073395 0 0 0
473 11 2 0.2503 14.992435978050015 5.529090037125092 3.63053454588165 0 0 0
475 11 4 0.063 14.996021777334576 4.9750052491054815 4.597155757584727 0 0 0
480 11 7 -0.68 14.394656683305264 4.754020555051438 2.6444893365709223 0 0 0
500 11 5 0.424 14.764520731344447 5.350810429492614 0.8367030305256656 0 0 0
701 18 2 0.2503 18.914788590260336 -1.4077888377111623 0.9490330198750361 0 1 0
702 18 4 0.063 17.814544375938965 -1.5110563120136096 1.0079257727091289 0 1 0
237 6 1 0.213 18.144697496463966 2.717393176629421 6.322722575730404 0 0 0
238 6 4 0.063 17.048985896352008 2.619529149653304 6.265300482436675 0 0 0
156 4 4 0.063 12.49338517772924 1.4672332772446999 6.490606694714723 0 0 0
663 16 7 -0.68 12.00064707955637 -1.956155594207788 4.798776964590601 0 1 0
193 6 1 0.213 18.31512867638385 4.219200386453871 0.04881259572235913 0 0 0
1190 11 7 -0.68 15.159109394147823 5.444236776676464 -0.0752036705420213 0 0 1
474 11 4 0.063 16.002211748534712 5.80962782908109 3.320955542650237 0 0 0
941 5 6 -0.5091 14.711300738212358 0.7796201518718338 -0.053701565685069896 0 0 1
208 6 5 0.424 17.989874096751674 5.678076706061892 3.92841338049159 0 0 0
249 5 5 0.424 15.932128176484362 -1.8556264663653121 6.845577579046831 0 0 0
1428 16 5 0.424 11.799184045604761 0.14182750280804823 -0.09312285460603624 0 1 1
194 6 4 0.063 17.24165689795363 4.04833174297541 0.029291986071755566 0 0 0
30 2 4 0.063 2.2311946031319616 6.530677543329318 0.9193011027057623 0 0 0
253 7 3 0.243 -0.2974991458055607 7.8324832671040046 0.3978180248534061 0 0 0
254 7 4 0.063 0.6474782591801893 8.35816935954839 0.5971087188207046 0 0 0
274 8 4 0.063 1.3285697339252884 10.589845764516554 1.9083494263447793 0 0 0
287 8 6 -0.5091 2.4145653440871495 12.969083598392809 2.2969205125601246 0 0 0
290 7 5 0.424 -1.166044740134148 11.050454423744688 6.0511381397564925 0 0 0
291 7 5 0.424 -1.23175151981308 9.967613915902241 1.4684566240444954 0 0 0
295 7 3 0.243 -0.7094479635915725 8.433255390716099 5.669585972117694 0 0 0
296 7 4 0.063 -1.7542540101525004 8.128018949368409 5.881135372389635 0 0 0
297 7 1 0.213 -0.6644762598382097 9.679835078196906 4.70314676593219 0 0 0
298 7 4 0.063 0.38337583136944575 10.041350657724527 4.609431822159214 0 0 0
299 7 1 0.213 -1.0754078324769696 9.241744282690323 3.2856015884123213 0 0 0
300 7 4 0.063 -2.169825649509704 9.046584080786978 3.3864401163374493 0 0 0
301 7 1 0.213 -0.4009821630170576 7.939104112833283 2.839266601659224 0 0 0
302 7 4 0.063 0.6748652653870946 8.140310982541793 2.630167980076645 0 0 0
303 7 1 0.213 -0.47982575242695447 6.8361794407700245 3.9242402991355103 0 0 0
304 7 4 0.063 -1.562047656770167 6.649023517091095 3.965223692996238 0 0 0
308 7 7 -0.68 -1.5042666864307903 10.77625924624525 5.1781746939080495 0 0 0
309 7 7 -0.68 -0.807879473224355 10.262797369324337 2.310593820030662 0 0 0
310 7 6 -0.5091 -0.9602095089052496 7.408454366838781 1.667859406873578 0 0 0
311 7 6 -0.5091 0.02928110234975101 7.306721352666321 5.219501128188392 0 0 0
317 8 1 0.213 2.429227098716119 13.419320715424599 5.668270136775206 0 0 0
318 8 4 0.063 1.322441416712786 13.38369147184121 5.598180793654336 0 0 0
321 8 1 0.213 2.5420865178338463 11.0024543439444 6.351040346178645 0 0 0
328 8 6 -0.5091 2.057541936163825 11.697409915608603 4.033605268799098 0 0 0
448 12 4 0.063 -3.282364167519423 13.586491796272878 1.2799600757402976 1 0 0
488 12 4 0.063 -3.4981862511180446 11.930955334065148 5.0679391169393035 1 0 0
541 13 5 0.424 -0.9377146602502668 12.11670377461186 2.511370352276864 0 0 0
557 13 2 0.2503 -0.7413581005455501 13.658970828839493 3.7029227546553316 0 0 0
559 13 4 0.063 -0.9556720692541334 13.057782594923765 4.586517886090441 0 0 0