LAMMPS data file via write_data, version 27 Jun 2024, timestep = 1000000, units = real

1512 atoms
7 atom types
1584 bonds
11 bond types
2952 angles
23 angle types
4752 dihedrals
39 dihedral types
1728 impropers
17 improper types

-2.5161047097929696 19.637379909791605 xlo xhi
-2.078188108267769 22.446861913265266 ylo yhi
-0.15178214465073836 20.992648370649633 zlo zhi
-2.815958626381141 0 0 xy xz yz

Atom Type Labels

1 c1
2 c2
3 coh
4 hc
5 ho
6 oc
7 oh

Bond Type Labels

1 c1-c1
2 c1-c2
3 c1-coh
4 c1-hc
5 c1-oc
6 c1-oh
7 c2-hc
8 c2-oh
9 coh-hc
10 coh-oc
11 ho-oh

Angle Type Labels

1 c1-c1-c1
2 c1-c1-c2
3 c1-c1-coh
4 c1-c1-hc
5 c1-c1-oc
6 c1-c1-oh
7 c1-c2-hc
8 c1-c2-oh
9 c1-coh-hc
10 c1-coh-oc
11 c1-oc-coh
12 c1-oh-ho
13 c2-c1-hc
14 c2-c1-oc
15 c2-oh-ho
16 coh-c1-hc
17 coh-c1-oh
18 hc-c1-oc
19 hc-c1-oh
20 hc-c2-hc
21 hc-c2-oh
22 hc-coh-oc
23 oc-coh-oc

Dihedral Type Labels

1 c1-c1-c1-c1
2 c1-c1-c1-c2
3 c1-c1-c1-coh
4 hc-c1-c1-hc
5 c1-c1-c1-hc
6 c2-c1-c1-hc
7 coh-c1-c1-hc
8 c1-c1-c1-oc
9 c2-c1-c1-oc
10 oc-c1-c1-oc
11 hc-c1-c1-oc
12 coh-c1-c1-oh
13 oc-c1-c1-oh
14 c1-c1-c1-oh
15 hc-c1-c1-oh
16 oh-c1-c1-oh
17 hc-c1-c2-hc
18 c1-c1-c2-hc
19 oc-c1-c2-oh
20 c1-c1-c2-oh
21 hc-c1-c2-oh
22 hc-c1-coh-hc
23 c1-c1-coh-hc
24 c1-c1-coh-oc
25 hc-c1-coh-oc
26 c2-c1-oc-coh
27 c1-c1-oc-coh
28 c1-c1-oh-ho
29 hc-c1-oh-ho
30 coh-c1-oh-ho
31 hc-c2-c1-oc
32 c1-c2-oh-ho
33 hc-c2-oh-ho
34 oc-coh-c1-oh
35 hc-coh-c1-oh
36 c1-coh-oc-c1
37 hc-c1-oc-coh
38 hc-coh-oc-c1
39 oc-coh-oc-c1

Improper Type Labels

1 c1-c1-c1-hc-nb!=3
2 c1-c1-c1-oc-nb!=3
3 c1-c1-c1-oh-nb!=3
4 c1-c1-c2-hc-nb!=3
5 c1-c1-c2-oc-nb!=3
6 c1-c1-coh-hc-nb!=3
7 c1-c1-coh-oh-nb!=3
8 c1-c1-hc-oc-nb!=3
9 c1-c1-hc-oh-nb!=3
10 c1-c2-hc-hc-nb!=3
11 c1-c2-hc-oh-nb!=3
12 c1-coh-hc-oc-nb!=3
13 c1-coh-oc-oc-nb!=3
14 c2-c1-hc-oc-nb!=3
15 coh-c1-hc-oh-nb!=3
16 hc-c2-hc-oh-nb!=3
17 hc-coh-oc-oc-nb!=3

Masses

1 12.01115
2 12.01115
3 12.01115
4 1.00797
5 1.00797
6 15.9994
7 15.9994

Pair Coeffs # lj/class2/coul/long

1 0.054 4.01
2 0.054 4.01
3 0.054 4.01
4 0.02 2.3
5 0.013 1.098
6 0.24 3.535
7 0.24 3.535

Bond Coeffs # morse

1 82.6961 2 1.53
2 82.6961 2 1.53
3 82.6961 2 1.53
4 98.2315 2 1.101
5 85.5641 2.3 1.42
6 85.5641 2.3 1.42
7 98.2315 2 1.101
8 85.5641 2.3 1.42
9 98.2315 2 1.101
10 85.5641 2.3 1.42
11 109.704 2.3 0.965

Angle Coeffs # class2xe

1 112.67 39.516 -7.443 -9.5583
2 112.67 39.516 -7.443 -9.5583
3 112.67 39.516 -7.443 -9.5583
4 110.77 41.453 -10.604 5.129
5 111.27 54.5381 -8.3642 -13.0838
6 111.27 54.5381 -8.3642 -13.0838
7 110.77 41.453 -10.604 5.129
8 111.27 54.5381 -8.3642 -13.0838
9 110.77 41.453 -10.604 5.129
10 111.27 54.5381 -8.3642 -13.0838
11 104.5 35.7454 -10.0067 -6.2729
12 105.8 52.7061 -12.109 -9.8681
13 110.77 41.453 -10.604 5.129
14 111.27 54.5381 -8.3642 -13.0838
15 105.8 52.7061 -12.109 -9.8681
16 110.77 41.453 -10.604 5.129
17 111.27 54.5381 -8.3642 -13.0838
18 108.728 58.5446 -10.8088 -12.4006
19 108.728 58.5446 -10.8088 -12.4006
20 107.66 39.641 -12.921 -2.4318
21 108.728 58.5446 -10.8088 -12.4006
22 108.728 58.5446 -10.8088 -12.4006
23 109.5 70 0 0

BondBond Coeffs

1 82.6961 0 1.53 1.53
2 82.6961 0 1.53 1.53
3 82.6961 0 1.53 1.53
4 90.4638 0.136826 1.53 1.101
5 84.1301 0.260655 1.53 1.42
6 84.1301 0.260655 1.53 1.42
7 90.4638 0.136826 1.53 1.101
8 84.1301 0.260655 1.53 1.42
9 90.4638 0.136826 1.53 1.101
10 84.1301 0.260655 1.53 1.42
11 85.5641 0.203877 1.42 1.42
12 97.6339 0.222741 1.42 0.965
13 90.4638 0.136826 1.53 1.101
14 84.1301 0.260655 1.53 1.42
15 97.6339 0.222741 1.42 0.965
16 90.4638 0.136826 1.53 1.101
17 84.1301 0.260655 1.53 1.42
18 91.8978 0.355269 1.101 1.42
19 91.8978 0.355269 1.101 1.42
20 98.2315 0.164736 1.101 1.101
21 91.8978 0.355269 1.101 1.42
22 91.8978 0.355269 1.101 1.42
23 85.5641 0 1.42 1.42

BondAngle Coeffs

1 82.6961 82.6961 0.220151 0.220151 1.53 1.53
2 82.6961 82.6961 0.220151 0.220151 1.53 1.53
3 82.6961 82.6961 0.220151 0.220151 1.53 1.53
4 82.6961 98.2315 0.354237 0.241108 1.53 1.101
5 82.6961 85.5641 0.127456 0.345294 1.53 1.42
6 82.6961 85.5641 0.127456 0.345294 1.53 1.42
7 82.6961 98.2315 0.354237 0.241108 1.53 1.101
8 82.6961 85.5641 0.127456 0.345294 1.53 1.42
9 82.6961 98.2315 0.354237 0.241108 1.53 1.101
10 82.6961 85.5641 0.127456 0.345294 1.53 1.42
11 85.5641 85.5641 0.12817 0.12817 1.42 1.42
12 85.5641 109.704 0.408668 0.293713 1.42 0.965
13 82.6961 98.2315 0.354237 0.241108 1.53 1.101
14 82.6961 85.5641 0.127456 0.345294 1.53 1.42
15 85.5641 109.704 0.408668 0.293713 1.42 0.965
16 82.6961 98.2315 0.354237 0.241108 1.53 1.101
17 82.6961 85.5641 0.127456 0.345294 1.53 1.42
18 98.2315 85.5641 0.153331 0.568601 1.101 1.42
19 98.2315 85.5641 0.153331 0.568601 1.101 1.42
20 98.2315 98.2315 0.303553 0.303553 1.101 1.101
21 98.2315 85.5641 0.153331 0.568601 1.101 1.42
22 98.2315 85.5641 0.153331 0.568601 1.101 1.42
23 85.5641 85.5641 0 0 1.42 1.42

Dihedral Coeffs # class2xe

1 0 0 0.0514 0 -0.143 0
2 0 0 0.0514 0 -0.143 0
3 0 0 0.0514 0 -0.143 0
4 -0.1432 0 0.0617 0 -0.1083 0
5 0 0 0.0316 0 -0.1681 0
6 0 0 0.0316 0 -0.1681 0
7 0 0 0.0316 0 -0.1681 0
8 0.7137 0 0.266 0 -0.2545 0
9 0.7137 0 0.266 0 -0.2545 0
10 -0.182 0 -0.1084 0 -0.7047 0
11 -0.1435 0 0.253 0 -0.0905 0
12 0.7137 0 0.266 0 -0.2545 0
13 -0.182 0 -0.1084 0 -0.7047 0
14 0.7137 0 0.266 0 -0.2545 0
15 -0.1435 0 0.253 0 -0.0905 0
16 -0.182 0 -0.1084 0 -0.7047 0
17 -0.1432 0 0.0617 0 -0.1083 0
18 0 0 0.0316 0 -0.1681 0
19 -0.182 0 -0.1084 0 -0.7047 0
20 0.7137 0 0.266 0 -0.2545 0
21 -0.1435 0 0.253 0 -0.0905 0
22 -0.1432 0 0.0617 0 -0.1083 0
23 0 0 0.0316 0 -0.1681 0
24 0.7137 0 0.266 0 -0.2545 0
25 -0.1435 0 0.253 0 -0.0905 0
26 -0.5203 0 -0.3028 0 -0.345 0
27 -0.5203 0 -0.3028 0 -0.345 0
28 -0.6732 0 -0.4778 0 -0.167 0
29 0.1863 0 -0.4338 0 -0.2121 0
30 -0.6732 0 -0.4778 0 -0.167 0
31 -0.1435 0 0.253 0 -0.0905 0
32 -0.6732 0 -0.4778 0 -0.167 0
33 0.1863 0 -0.4338 0 -0.2121 0
34 -0.182 0 -0.1084 0 -0.7047 0
35 -0.1435 0 0.253 0 -0.0905 0
36 -0.5203 0 -0.3028 0 -0.345 0
37 0.5302 0 0 0 -0.3966 0
38 0.5302 0 0 0 -0.3966 0
39 0 0 0 0 0.13 0

AngleAngleTorsion Coeffs

1 -22.045 112.67 112.67
2 -22.045 112.67 112.67
3 -22.045 112.67 112.67
4 -12.564 110.77 110.77
5 -16.164 112.67 110.77
6 -16.164 112.67 110.77
7 -16.164 112.67 110.77
8 -29.042 112.67 111.27
9 -29.042 112.67 111.27
10 -14.0484 111.27 111.27
11 -20.2006 110.77 111.27
12 -29.042 112.67 111.27
13 -14.0484 111.27 111.27
14 -29.042 112.67 111.27
15 -20.2006 110.77 111.27
16 -14.0484 111.27 111.27
17 -12.564 110.77 110.77
18 -16.164 112.67 110.77
19 -14.0484 111.27 111.27
20 -29.042 112.67 111.27
21 -20.2006 110.77 111.27
22 -12.564 110.77 110.77
23 -16.164 112.67 110.77
24 -29.042 112.67 111.27
25 -20.2006 110.77 111.27
26 -19.0059 111.27 104.5
27 -19.0059 111.27 104.5
28 -12.1038 111.27 105.8
29 -10.5093 108.728 105.8
30 -12.1038 111.27 105.8
31 -20.2006 110.77 111.27
32 -12.1038 111.27 105.8
33 -10.5093 108.728 105.8
34 -14.0484 111.27 111.27
35 -20.2006 110.77 111.27
36 -19.0059 111.27 104.5
37 -16.4438 108.728 104.5
38 -16.4438 108.728 104.5
39 0 109.5 104.5

EndBondTorsion Coeffs

1 2 2 -0.0732 0 0 -0.0732 0 0 1.53 1.53
2 2 2 -0.0732 0 0 -0.0732 0 0 1.53 1.53
3 2 2 -0.0732 0 0 -0.0732 0 0 1.53 1.53
4 2 2 0.213 0.312 0.0777 0.213 0.312 0.0777 1.101 1.101
5 2 2 0.2486 0.2422 -0.0925 0.0814 0.0591 0.2219 1.53 1.101
6 2 2 0.2486 0.2422 -0.0925 0.0814 0.0591 0.2219 1.53 1.101
7 2 2 0.2486 0.2422 -0.0925 0.0814 0.0591 0.2219 1.53 1.101
8 2 2.3 -0.319 0.4411 -0.7174 1.1538 0.8409 -0.9138 1.53 1.42
9 2 2.3 -0.319 0.4411 -0.7174 1.1538 0.8409 -0.9138 1.53 1.42
10 2.3 2.3 1.0165 0.7553 -0.4609 1.0165 0.7553 -0.4609 1.42 1.42
11 2 2.3 0.9681 0.9551 0.0436 0.5903 0.6669 0.8584 1.101 1.42
12 2 2.3 -0.319 0.4411 -0.7174 1.1538 0.8409 -0.9138 1.53 1.42
13 2.3 2.3 1.0165 0.7553 -0.4609 1.0165 0.7553 -0.4609 1.42 1.42
14 2 2.3 -0.319 0.4411 -0.7174 1.1538 0.8409 -0.9138 1.53 1.42
15 2 2.3 0.9681 0.9551 0.0436 0.5903 0.6669 0.8584 1.101 1.42
16 2.3 2.3 1.0165 0.7553 -0.4609 1.0165 0.7553 -0.4609 1.42 1.42
17 2 2 0.213 0.312 0.0777 0.213 0.312 0.0777 1.101 1.101
18 2 2 0.2486 0.2422 -0.0925 0.0814 0.0591 0.2219 1.53 1.101
19 2.3 2.3 1.0165 0.7553 -0.4609 1.0165 0.7553 -0.4609 1.42 1.42
20 2 2.3 -0.319 0.4411 -0.7174 1.1538 0.8409 -0.9138 1.53 1.42
21 2 2.3 0.9681 0.9551 0.0436 0.5903 0.6669 0.8584 1.101 1.42
22 2 2 0.213 0.312 0.0777 0.213 0.312 0.0777 1.101 1.101
23 2 2 0.2486 0.2422 -0.0925 0.0814 0.0591 0.2219 1.53 1.101
24 2 2.3 -0.319 0.4411 -0.7174 1.1538 0.8409 -0.9138 1.53 1.42
25 2 2.3 0.9681 0.9551 0.0436 0.5903 0.6669 0.8584 1.101 1.42
26 2 2.3 -0.2456 1.0517 -0.7795 0.4741 1.2635 0.5576 1.53 1.42
27 2 2.3 -0.2456 1.0517 -0.7795 0.4741 1.2635 0.5576 1.53 1.42
28 2 2.3 -0.58 0.9004 0 0 0.5343 0.9025 1.53 0.965
29 2 2.3 -1.7554 1.3145 0.2263 0.2493 0.6803 0 1.101 0.965
30 2 2.3 -0.58 0.9004 0 0 0.5343 0.9025 1.53 0.965
31 2 2.3 0.9681 0.9551 0.0436 0.5903 0.6669 0.8584 1.101 1.42
32 2 2.3 -0.58 0.9004 0 0 0.5343 0.9025 1.53 0.965
33 2 2.3 -1.7554 1.3145 0.2263 0.2493 0.6803 0 1.101 0.965
34 2.3 2.3 1.0165 0.7553 -0.4609 1.0165 0.7553 -0.4609 1.42 1.42
35 2 2.3 0.9681 0.9551 0.0436 0.5903 0.6669 0.8584 1.101 1.42
36 2 2.3 -0.2456 1.0517 -0.7795 0.4741 1.2635 0.5576 1.53 1.42
37 2 2.3 -0.6054 1.3339 0.9648 -0.162 0.1564 -1.1408 1.101 1.42
38 2 2.3 -0.6054 1.3339 0.9648 -0.162 0.1564 -1.1408 1.101 1.42
39 2.3 2.3 0 0 0 0 0 0 1.42 1.42

MiddleBondTorsion Coeffs

1 2 -17.787 -7.1877 0 1.53
2 2 -17.787 -7.1877 0 1.53
3 2 -17.787 -7.1877 0 1.53
4 2 -14.261 -0.5322 -0.4864 1.53
5 2 -14.879 -3.6581 -0.3138 1.53
6 2 -14.879 -3.6581 -0.3138 1.53
7 2 -14.879 -3.6581 -0.3138 1.53
8 2 -21.8842 -7.6764 -0.6868 1.53
9 2 -21.8842 -7.6764 -0.6868 1.53
10 2 -17.2585 -3.6157 -0.8364 1.53
11 2 -16.7975 -1.2296 -0.275 1.53
12 2 -21.8842 -7.6764 -0.6868 1.53
13 2 -17.2585 -3.6157 -0.8364 1.53
14 2 -21.8842 -7.6764 -0.6868 1.53
15 2 -16.7975 -1.2296 -0.275 1.53
16 2 -17.2585 -3.6157 -0.8364 1.53
17 2 -14.261 -0.5322 -0.4864 1.53
18 2 -14.879 -3.6581 -0.3138 1.53
19 2 -17.2585 -3.6157 -0.8364 1.53
20 2 -21.8842 -7.6764 -0.6868 1.53
21 2 -16.7975 -1.2296 -0.275 1.53
22 2 -14.261 -0.5322 -0.4864 1.53
23 2 -14.879 -3.6581 -0.3138 1.53
24 2 -21.8842 -7.6764 -0.6868 1.53
25 2 -16.7975 -1.2296 -0.275 1.53
26 2.3 -5.9288 -2.7007 -0.3175 1.42
27 2.3 -5.9288 -2.7007 -0.3175 1.42
28 2.3 1.2472 0 0.7485 1.42
29 2.3 0 0.9241 -0.5889 1.42
30 2.3 1.2472 0 0.7485 1.42
31 2 -16.7975 -1.2296 -0.275 1.53
32 2.3 1.2472 0 0.7485 1.42
33 2.3 0 0.9241 -0.5889 1.42
34 2 -17.2585 -3.6157 -0.8364 1.53
35 2 -16.7975 -1.2296 -0.275 1.53
36 2.3 -5.9288 -2.7007 -0.3175 1.42
37 2.3 -6.8007 -4.6546 -1.4101 1.42
38 2.3 -6.8007 -4.6546 -1.4101 1.42
39 2.3 0 0 0 1.42

BondBond13 Coeffs

1 82.6961 0 1.53 1.53
2 82.6961 0 1.53 1.53
3 82.6961 0 1.53 1.53
4 98.2315 0 1.101 1.101
5 90.4638 0 1.53 1.101
6 90.4638 0 1.53 1.101
7 90.4638 0 1.53 1.101
8 84.1301 0 1.53 1.42
9 84.1301 0 1.53 1.42
10 85.5641 0 1.42 1.42
11 91.8978 0 1.101 1.42
12 84.1301 0 1.53 1.42
13 85.5641 0 1.42 1.42
14 84.1301 0 1.53 1.42
15 91.8978 0 1.101 1.42
16 85.5641 0 1.42 1.42
17 98.2315 0 1.101 1.101
18 90.4638 0 1.53 1.101
19 85.5641 0 1.42 1.42
20 84.1301 0 1.53 1.42
21 91.8978 0 1.101 1.42
22 98.2315 0 1.101 1.101
23 90.4638 0 1.53 1.101
24 84.1301 0 1.53 1.42
25 91.8978 0 1.101 1.42
26 84.1301 0 1.53 1.42
27 84.1301 0 1.53 1.42
28 96.2 0 1.53 0.965
29 103.968 0 1.101 0.965
30 96.2 0 1.53 0.965
31 91.8978 0 1.101 1.42
32 96.2 0 1.53 0.965
33 103.968 0 1.101 0.965
34 85.5641 0 1.42 1.42
35 91.8978 0 1.101 1.42
36 84.1301 0 1.53 1.42
37 91.8978 0 1.101 1.42
38 91.8978 0 1.101 1.42
39 85.5641 0 1.42 1.42

AngleTorsion Coeffs

1 0.3886 -0.3139 0.1389 0.3886 -0.3139 0.1389 112.67 112.67
2 0.3886 -0.3139 0.1389 0.3886 -0.3139 0.1389 112.67 112.67
3 0.3886 -0.3139 0.1389 0.3886 -0.3139 0.1389 112.67 112.67
4 -0.8085 0.5569 -0.2466 -0.8085 0.5569 -0.2466 110.77 110.77
5 -0.2454 0 -0.1136 0.3113 0.4516 -0.1988 112.67 110.77
6 -0.2454 0 -0.1136 0.3113 0.4516 -0.1988 112.67 110.77
7 -0.2454 0 -0.1136 0.3113 0.4516 -0.1988 112.67 110.77
8 0.5623 -0.3041 -0.4015 0.9672 -0.7566 -1.2331 112.67 111.27
9 0.5623 -0.3041 -0.4015 0.9672 -0.7566 -1.2331 112.67 111.27
10 0.5511 0.9737 -0.6673 0.5511 0.9737 -0.6673 111.27 111.27
11 2.3668 2.492 -1.0122 -0.1892 0.4918 0.7273 110.77 111.27
12 0.5623 -0.3041 -0.4015 0.9672 -0.7566 -1.2331 112.67 111.27
13 0.5511 0.9737 -0.6673 0.5511 0.9737 -0.6673 111.27 111.27
14 0.5623 -0.3041 -0.4015 0.9672 -0.7566 -1.2331 112.67 111.27
15 2.3668 2.492 -1.0122 -0.1892 0.4918 0.7273 110.77 111.27
16 0.5511 0.9737 -0.6673 0.5511 0.9737 -0.6673 111.27 111.27
17 -0.8085 0.5569 -0.2466 -0.8085 0.5569 -0.2466 110.77 110.77
18 -0.2454 0 -0.1136 0.3113 0.4516 -0.1988 112.67 110.77
19 0.5511 0.9737 -0.6673 0.5511 0.9737 -0.6673 111.27 111.27
20 0.5623 -0.3041 -0.4015 0.9672 -0.7566 -1.2331 112.67 111.27
21 2.3668 2.492 -1.0122 -0.1892 0.4918 0.7273 110.77 111.27
22 -0.8085 0.5569 -0.2466 -0.8085 0.5569 -0.2466 110.77 110.77
23 -0.2454 0 -0.1136 0.3113 0.4516 -0.1988 112.67 110.77
24 0.5623 -0.3041 -0.4015 0.9672 -0.7566 -1.2331 112.67 111.27
25 2.3668 2.492 -1.0122 -0.1892 0.4918 0.7273 110.77 111.27
26 -2.7466 1.4877 -0.8955 0.5676 0.945 0.0703 111.27 104.5
27 -2.7466 1.4877 -0.8955 0.5676 0.945 0.0703 111.27 104.5
28 -3.5903 2.5225 0.4888 0.8726 -0.3577 0.3888 111.27 105.8
29 -3.406 1.6396 0.0737 0 -0.281 -0.5944 108.728 105.8
30 -3.5903 2.5225 0.4888 0.8726 -0.3577 0.3888 111.27 105.8
31 2.3668 2.492 -1.0122 -0.1892 0.4918 0.7273 110.77 111.27
32 -3.5903 2.5225 0.4888 0.8726 -0.3577 0.3888 111.27 105.8
33 -3.406 1.6396 0.0737 0 -0.281 -0.5944 108.728 105.8
34 0.5511 0.9737 -0.6673 0.5511 0.9737 -0.6673 111.27 111.27
35 2.3668 2.492 -1.0122 -0.1892 0.4918 0.7273 110.77 111.27
36 -2.7466 1.4877 -0.8955 0.5676 0.945 0.0703 111.27 104.5
37 -1.8234 1.6393 0.5144 -0.7777 0.434 -0.6653 108.728 104.5
38 -1.8234 1.6393 0.5144 -0.7777 0.434 -0.6653 108.728 104.5
39 0 0 0 0 0 0 109.5 104.5

Improper Coeffs # class2

1 0 0
2 0 0
3 0 0
4 0 0
5 0 0
6 0 0
7 0 0
8 0 0
9 0 0
10 0 0
11 0 0
12 0 0
13 0 0
14 0 0
15 0 0
16 0 0
17 0 0

AngleAngle Coeffs

1 -1.3199 -1.3199 0.1184 112.67 110.77 110.77
2 -0.833 -0.833 -3.5744 112.67 111.27 111.27
3 -0.833 -0.833 -3.5744 112.67 111.27 111.27
4 -1.3199 -1.3199 0.1184 112.67 110.77 110.77
5 -0.833 -0.833 -3.5744 112.67 111.27 111.27
6 -1.3199 -1.3199 0.1184 112.67 110.77 110.77
7 -0.833 -0.833 -3.5744 112.67 111.27 111.27
8 3.9177 2.5926 0.1689 110.77 111.27 108.728
9 3.9177 2.5926 0.1689 110.77 111.27 108.728
10 0.2738 -0.4825 0.2738 110.77 110.77 107.66
11 3.9177 2.5926 0.1689 110.77 111.27 108.728
12 3.9177 2.5926 0.1689 110.77 111.27 108.728
13 0 0 0 111.27 109.5 111.27
14 3.9177 2.5926 0.1689 110.77 111.27 108.728
15 3.9177 2.5926 0.1689 110.77 111.27 108.728
16 2.4259 2.4259 2.1283 107.66 108.728 108.728
17 0 0 0 108.728 109.5 108.728

Atoms # full

1 1 3 0.243 0.5641791701881869 -0.40519023227678486 0.496198718623173 0 0 0
2 1 4 0.063 1.6478495054097575 -0.27202132511007693 0.5770888197593801 0 0 0
22 2 4 0.063 2.3105384263298667 2.3590838025095806 1.9577403716334887 0 0 0
38 1 5 0.424 -0.09708196202430752 2.8646905576798947 6.008530886986966 0 0 0
39 1 5 0.424 -0.10356033801124909 1.6806566755793773 1.4058357648386182 0 0 0
43 1 3 0.243 0.1682029675194907 0.3063059982352181 5.647731262729202 0 0 0
44 1 4 0.063 -0.8960028713335295 0.08170431067135375 5.740317997407175 0 0 0
45 1 1 0.213 0.23578593473836218 1.499101015332739 4.6905157520441305 0 0 0
46 1 4 0.063 1.2857322378459726 1.8058186054389789 4.756231295335586 0 0 0
47 1 1 0.213 -0.19389122578552698 1.0827314776784327 3.240146858268504 0 0 0
48 1 4 0.063 -1.271262784833631 0.7882817257133499 3.3172789882693867 0 0 0
49 1 1 0.213 0.48458389580847516 -0.28245211005462734 2.795314043237954 0 0 0
50 1 4 0.063 1.598096284705277 -0.2625518634031012 2.7362852888162865 0 0 0
51 1 1 0.213 0.26935309101971994 -1.321100184974311 3.9023884868022485 0 0 0
52 1 4 0.063 -0.8033818908512256 -1.5503254452052349 3.9916909819392936 0 0 0
56 1 7 -0.68 -0.5296330479022422 2.5792326926737186 5.183027863395656 0 0 0
57 1 7 -0.68 -0.07153559365233875 2.1465029263894504 2.2664422005144744 0 0 0
58 1 6 -0.5091 -0.14157130390605088 -0.6901357530728973 1.607388055996674 0 0 0
59 1 6 -0.5091 0.8335902817300722 -0.8451497370849106 5.1263999743655875 0 0 0
66 2 4 0.063 2.246054664973781 5.193808033370079 5.822181614148743 0 0 0
188 6 4 0.063 -2.581698214171257 3.476207223241998 3.1265892386035947 1 0 0
192 6 4 0.063 -2.3356423764261383 2.8889339718599807 0.4870882113307028 1 0 0
196 6 4 0.063 -2.367949009842566 5.4541674310202755 1.081765768243833 1 0 0
236 6 4 0.063 -2.546819106591565 3.8803906777211052 4.92689812933661 1 0 0
289 7 5 0.424 -0.3853319677155955 3.8454050067786296 2.8149211289528626 0 0 0
305 7 2 0.2503 0.1931411102307039 5.50567094088841 3.7272503127317838 0 0 0
307 7 4 0.063 0.21819984630113698 4.844808118815855 4.5985847450208235 0 0 0
312 7 7 -0.68 -0.464539283289779 4.812747629195938 2.6620805186415395 0 0 0
332 7 5 0.424 -0.008770193240933644 5.361799792576132 0.8244150435637613 0 0 0
70 2 4 0.063 2.2409530767516497 2.6988728360056937 6.413388322125093 0 0 0
240 6 4 0.063 -2.3453623049710277 1.3945928094540965 6.516958747654017 1 0 0
306 7 4 0.063 1.243604320114354 5.717448288022474 3.489067120060877 0 0 0
1022 7 7 -0.68 0.413834944331422 5.534380243231115 -0.055888435695285746 0 0 1
81 1 5 0.424 0.8573453404301272 -1.68912092424261 6.871331088024016 0 0 0
773 1 6 -0.5091 -0.13101599539568864 0.784699301294812 -0.0665711906670537 0 0 1
76 2 6 -0.5091 2.9589385940607897 3.3920329912296907 4.107229533996673 0 0 0
703 18 4 0.063 -2.5451028075173894 -0.7800321499909706 1.6905169124906085 1 1 0
26 2 4 0.063 2.4686567488974696 4.236589255262567 -0.11439496443898341 0 0 0
534 14 4 0.063 3.2257945401615666 -1.4956878467629704 0.9831093384530067 0 1 0
35 2 6 -0.5091 3.271977879894772 4.883423079043678 2.3847086368466957 0 0 0
65 2 1 0.213 3.350156241851245 5.186947439740453 5.792614889013558 0 0 0
21 2 1 0.213 3.429697370346579 2.39167464054845 1.922681743950224 0 0 0
32 2 7 -0.68 4.034086634261505 1.191922696650205 2.380801643924167 0 0 0
42 2 5 0.424 4.109937122048917 -0.11773415988012403 5.149552200739024 0 0 0
78 2 7 -0.68 3.6538643076684547 0.7444589411049796 5.033123858195293 0 0 0
69 2 1 0.213 3.294168233469403 2.823655063934093 6.453860579758005 0 0 0
19 2 3 0.243 3.6850457114177635 3.6227771091126115 2.868740017078551 0 0 0
20 2 4 0.063 4.759855786056175 3.7282615140385706 3.1229975044407783 0 0 0
23 2 1 0.213 4.002976769119973 2.7804292041875724 0.5055462323081437 0 0 0
24 2 4 0.063 5.130747817048971 2.7885263495009944 0.6212012137123502 0 0 0
27 2 1 0.213 3.8694319575795904 5.24187104663031 1.1368070828376668 0 0 0
28 2 4 0.063 4.959329395670343 5.34674877361099 1.2734501456581613 0 0 0
67 2 1 0.213 3.703358708769059 3.797997663518 5.377468207599015 0 0 0
68 2 4 0.063 4.8120388458199175 3.746548430187085 5.346129623458969 0 0 0
71 2 2 0.2503 3.79599237931164 1.368614641901714 6.307722759407785 0 0 0
83 2 5 0.424 3.6993501303871215 1.0485835127586953 3.2958298218678395 0 0 0
85 3 3 0.243 8.05303133434248 -0.3324900915409901 0.41699474238248646 0 0 0
86 3 4 0.063 9.1019732567242 -0.054790966576343525 0.5776843970066394 0 0 0
105 4 1 0.213 10.73399783677149 2.5778843851944195 1.8129447993950665 0 0 0
106 4 4 0.063 9.637951313267651 2.6868574113321895 1.8461494961037896 0 0 0
122 3 5 0.424 7.321902842601089 2.8208836112329694 6.116540472817201 0 0 0
123 3 5 0.424 7.290844393322873 1.7762181948143159 1.4785665792457627 0 0 0
127 3 3 0.243 7.657649322496551 0.2834019061824744 5.678407978158369 0 0 0
128 3 4 0.063 6.557624164304983 0.10894949376575847 5.8589917532130515 0 0 0
129 3 1 0.213 7.696464322858484 1.502733465429169 4.731721461378098 0 0 0
130 3 4 0.063 8.755886751056988 1.7909865176133324 4.769321060454061 0 0 0
131 3 1 0.213 7.239243068545127 1.0856341342920768 3.309493757616498 0 0 0
132 3 4 0.063 6.177944461471617 0.7919940632829623 3.3463813570056415 0 0 0
133 3 1 0.213 7.950930443698351 -0.2570721437442225 2.8839689933182693 0 0 0
134 3 4 0.063 9.033249364661405 -0.010802055342617134 2.8011551018850542 0 0 0
135 3 1 0.213 7.821485635621242 -1.3688305187899692 3.9209051840285003 0 0 0
136 3 4 0.063 6.757603890838752 -1.7053405024002555 3.8643650840269723 0 0 0
140 3 7 -0.68 6.883896209005714 2.5446142472487603 5.277916097917889 0 0 0
141 3 7 -0.68 7.477146935350872 2.1507114079121807 2.3667595157380723 0 0 0
142 3 6 -0.5091 7.3451268021827545 -0.6950196594880464 1.63229640473231 0 0 0
143 3 6 -0.5091 8.345142288778106 -0.8389850953178672 5.157123257407961 0 0 0
150 4 4 0.063 9.66113470348247 5.012454210237144 5.740403578417007 0 0 0
160 4 6 -0.5091 10.393454471484144 3.5246769594932337 4.089291081788265 0 0 0
373 9 5 0.424 7.101440728291152 3.8112167856682673 2.8578490317812584 0 0 0
389 9 2 0.2503 7.542962031128122 5.494046775736979 3.737025709757811 0 0 0
391 9 4 0.063 7.505482898350479 4.918732204520097 4.672151816981547 0 0 0
396 9 7 -0.68 6.910279108463355 4.757490376356672 2.6311073084435033 0 0 0
416 9 5 0.424 7.282654750315743 5.233335491200396 0.7840346442255458 0 0 0
533 14 2 0.2503 4.313122397436876 -1.4548326908325462 0.9008848476657023 0 1 0
535 14 4 0.063 4.797772862537113 -0.8175371091804036 1.6454112560554706 0 1 0
149 4 1 0.213 10.75594868955065 5.167242971262879 5.657749708249096 0 0 0
153 4 1 0.213 10.828241722474234 2.830669504795134 6.425402996174225 0 0 0
119 4 6 -0.5091 10.676685989337424 4.831781394792132 2.3272492066185437 0 0 0
618 16 4 0.063 10.604212756139086 -1.3569927364103784 1.068378400456129 0 1 0
103 4 3 0.243 11.134089912471532 3.66458431398355 2.8515237730879264 0 0 0
154 4 4 0.063 9.71222519383796 2.868860631886604 6.552490034224334 0 0 0
151 4 1 0.213 11.16935805435114 3.842589355227087 5.300616600265294 0 0 0
25 2 1 0.213 3.5497387840341954 4.2266831147584645 0.03483183397240244 0 0 0
579 14 7 -0.68 4.68773178158884 -1.816676623877755 4.850883520005023 0 1 0
72 2 4 0.063 4.851269553494357 1.4682135713721451 6.648885068427235 0 0 0
390 9 4 0.063 8.60890598126031 5.674530791845914 3.4545298444208594 0 0 0
109 4 1 0.213 10.913699328379957 4.278870975391446 -0.0153327336420844 0 0 0
1106 9 7 -0.68 7.792239755558112 5.430842264433341 -0.0354069096391022 0 0 1
857 3 6 -0.5091 7.310304705936568 0.7654650079330363 -0.07666035201573866 0 0 1
124 4 5 0.424 10.795420948695332 5.940078061322698 3.7928353918940534 0 0 0
111 4 1 0.213 11.12906976246531 5.280477146089032 1.1962166502508993 0 0 0
162 4 7 -0.68 11.019705630707625 0.7500918529498435 4.945043851548892 0 0 0
40 2 5 0.424 3.413208868553366 5.809369930040283 4.002409874691851 0 0 0
126 4 5 0.424 11.298895746763163 -0.175437620378309 5.097890158116464 0 0 0
167 4 5 0.424 11.047937688491253 1.3618819494304266 3.2958600807835974 0 0 0
155 4 2 0.2503 11.289017087176266 1.3689031248803185 6.206079135391701 0 0 0
165 3 5 0.424 8.473466655202623 -1.7739694537350617 6.7553887503985335 0 0 0
100 3 6 -0.5091 8.284848852341833 0.6664411734782427 6.894138101742154 0 0 0
107 4 1 0.213 11.405300605858777 2.8445168794724767 0.40469033101477436 0 0 0
116 4 7 -0.68 11.3353387232288 1.3400409405985667 2.354240877637345 0 0 0
195 6 1 0.213 18.668725236543153 5.310557257815756 1.0707010153394094 0 0 0
617 16 2 0.2503 11.700610788154473 -1.414984903125879 0.8983588153010567 0 1 0
619 16 4 0.063 12.224584495924171 -0.8147504317475838 1.679683594289637 0 1 0
191 6 1 0.213 18.707715081202778 2.880417389776146 0.4359322355695294 0 0 0
239 6 2 0.2503 18.75218476814601 1.4087523263780621 6.185164839135069 0 0 0
200 6 7 -0.68 18.698240489227686 1.2701233020716978 2.326406075803907 0 0 0
210 6 5 0.424 18.702106269631294 -0.14781767771014787 5.209317269526137 0 0 0
235 6 1 0.213 18.53159619377392 3.835054147023759 5.223073824356026 0 0 0
246 6 7 -0.68 18.423460823765836 0.7763291883711547 4.96061977519364 0 0 0
701 18 2 0.2503 19.0852683943342 -1.398984914670708 0.9138537542333811 0 1 0
251 6 5 0.424 18.35453799190687 1.2836907603659946 3.2520945331633397 0 0 0
187 6 3 0.243 18.51358723995896 3.6449181494374123 2.852689988139428 0 0 0
104 4 4 0.063 12.214771008679055 3.9346179430305215 3.0765719325521967 0 0 0
108 4 4 0.063 12.484619720340254 2.7083974143421843 0.6005624308202061 0 0 0
112 4 4 0.063 12.232306544506315 5.301331644683356 1.3772038177891937 0 0 0
152 4 4 0.063 12.253975945176586 3.771214843410423 5.181691961935456 0 0 0
169 5 3 0.243 15.364925691839684 -0.368421728567913 0.39972365882794947 0 0 0
170 5 4 0.063 16.41413876672967 0.005877604120128055 0.5701155687696202 0 0 0
189 6 1 0.213 18.19117654035912 2.4880271483373138 1.8015948481751012 0 0 0
190 6 4 0.063 17.144447226614222 2.379490781040226 1.4248043482466983 0 0 0
203 6 6 -0.5091 18.109299832869066 4.88459534100806 2.393580900346492 0 0 0
206 5 5 0.424 14.583941359225715 2.747780823904015 6.175962615065294 0 0 0
207 5 5 0.424 14.873273403722568 1.7071867208463685 1.4519463720074712 0 0 0
211 5 3 0.243 15.003741999968458 0.25561586021101723 5.651026789494014 0 0 0
212 5 4 0.063 13.900165332596472 0.10616976157129532 5.764960212214894 0 0 0
213 5 1 0.213 15.1088042705648 1.5128528814488047 4.735870889432945 0 0 0
214 5 4 0.063 16.211488886667297 1.7370489670788691 4.690035943328672 0 0 0
215 5 1 0.213 14.640821927528023 1.0835590022339066 3.28667956856943 0 0 0
216 5 4 0.063 13.562024435297833 0.8824851569463581 3.289224851708123 0 0 0
217 5 1 0.213 15.344629844595698 -0.1905643644576951 2.8909549594260544 0 0 0
218 5 4 0.063 16.373213473877268 0.20420683295609088 2.7016905601254773 0 0 0
219 5 1 0.213 15.211937308528917 -1.2512358183756698 3.9792263175141445 0 0 0
220 5 4 0.063 14.155709416335412 -1.56825527349188 4.073849131374975 0 0 0
224 5 7 -0.68 14.325651318659773 2.656574057603283 5.236953078620697 0 0 0
225 5 7 -0.68 14.928712093565977 2.135653478755506 2.332840535786377 0 0 0
226 5 6 -0.5091 14.773661206654268 -0.7720481429003136 1.6710071919667748 0 0 0
227 5 6 -0.5091 15.744870980640158 -0.8647331706315213 5.196469312940221 0 0 0
233 6 1 0.213 18.175974939155267 5.313049097170021 5.736185176314903 0 0 0
234 6 4 0.063 17.072069733156706 5.3791643883446145 5.952505206866122 0 0 0
244 6 6 -0.5091 17.76166178155218 3.481011344506598 4.07766625889825 0 0 0
457 11 5 0.424 14.85551693696479 3.9469363590019517 2.617121195739268 0 0 0
473 11 2 0.2503 14.95113372071674 5.528695170131496 3.6257079349965196 0 0 0
475 11 4 0.063 14.949248883927797 5.009726148042554 4.609116876211372 0 0 0
480 11 7 -0.68 14.327795156019096 4.78685559084845 2.62618835623079 0 0 0
500 11 5 0.424 14.887916584499791 5.370891104073842 0.8270882240083973 0 0 0
237 6 1 0.213 18.184507774404604 2.8170608073841352 6.346254472252916 0 0 0
702 18 4 0.063 17.97632958913537 -1.4015234286200258 1.163280729521432 0 1 0
474 11 4 0.063 15.983170477614244 5.443625955415739 3.2798545020307346 0 0 0
238 6 4 0.063 17.07867732446034 2.8140083571982712 6.39713344076304 0 0 0
156 4 4 0.063 12.398150826318027 1.3596148858383885 6.317565832495431 0 0 0
747 18 7 -0.68 19.424832740347718 -1.9305088544862266 4.829979741652701 0 1 0
193 6 1 0.213 18.335332869274705 4.306819907946764 0.0013931016305990251 0 0 0
1190 11 7 -0.68 15.248004928438029 5.52517368153118 -0.07582125308636833 0 0 1
941 5 6 -0.5091 14.626587753324781 0.6893396585162179 -0.10919631060245802 0 0 1
208 6 5 0.424 17.994777744566026 5.948938270461511 3.9930542777624183 0 0 0
663 16 7 -0.68 12.094500716857645 -1.9259978959362254 4.792492780588671 0 1 0
249 5 5 0.424 15.643967136826085 -1.8785614077632364 6.850673223888059 0 0 0
304 7 4 0.063 -1.5450267909836592 6.641697064227975 4.20295849991607 0 0 0
30 2 4 0.063 2.337207681551577 6.892149702645817 1.2611860909263872 0 0 0
253 7 3 0.243 -0.3261500357448801 7.8151876168559 0.43085328330854966 0 0 0
254 7 4 0.063 0.7225773419758861 8.148281991838674 0.5761567864373004 0 0 0
274 8 4 0.063 1.4329902379121782 10.638939740835848 1.9129892230129033 0 0 0
287 8 6 -0.5091 2.3462026631306454 12.990315184559808 2.314917889570344 0 0 0
290 7 5 0.424 -1.0991502504450728 10.92004690090249 6.145307659056036 0 0 0
291 7 5 0.424 -1.2679765549121942 9.820233000867601 1.5403671033387032 0 0 0
295 7 3 0.243 -0.6817762286878604 8.4155525348985 5.745384718312223 0 0 0
296 7 4 0.063 -1.714103784226225 8.072821949575506 5.943984329232 0 0 0
297 7 1 0.213 -0.6857806447644663 9.670476519494695 4.781519687548764 0 0 0
298 7 4 0.063 0.3996949798270766 9.883345762999424 4.790234784832818 0 0 0
299 7 1 0.213 -1.0843353043837125 9.262308435952626 3.32977743687286 0 0 0
300 7 4 0.063 -2.1530853666731726 8.971132913258428 3.3387135937223777 0 0 0
301 7 1 0.213 -0.4199001705451213 7.958959556655186 2.849460014077291 0 0 0
302 7 4 0.063 0.6820808287788642 7.9988766713554575 2.745352433293709 0 0 0
303 7 1 0.213 -0.4982132333310729 6.851312072978141 3.9807210498223906 0 0 0
308 7 7 -0.68 -1.5515269833531036 10.720242879923648 5.29279492273415 0 0 0
309 7 7 -0.68 -0.9099910919546226 10.28451534851425 2.343582819075613 0 0 0
310 7 6 -0.5091 -0.9857981080976008 7.434497224095427 1.6557077749454174 0 0 0
311 7 6 -0.5091 0.09150283400698234 7.35997776031704 5.233123226739664 0 0 0
317 8 1 0.213 2.3827452546858368 13.41042967035177 5.696952519856465 0 0 0
318 8 4 0.063 1.2749831621331502 13.27800973218289 5.789542856256015 0 0 0
328 8 6 -0.5091 2.094201625637721 11.667119476282906 4.127893201587887 0 0 0
440 12 4 0.063 -3.5149149152939163 11.78480684742275 2.8711763701974347 1 0 0
444 12 4 0.063 -3.1482573469160933 11.125354274699955 0.5003745125880149 1 0 0
448 12 4 0.063 -3.3953571331343717 13.310350552749815 1.1453058093580533 1 0 0
488 12 4 0.063 -3.4453108138174655 12.329415053377069 5.007852806771249 1 0 0
541 13 5 0.424 -1.0430904239827177 12.101602373264983 2.6547226617655166 0 0 0
557 13 2 0.2503 -0.767816322668053 13.687088483042045 3.6193296734194487 0 0 0
559 13 4 0.063 -0.8916194974731879 12.990144623759237 4.48121724027631 0 0 0
564 13 7 -0.68 -1.304787952045309 13.049310228243703 2.5480387969006677 0 0 0