LAMMPS data file via write_data, version 27 Jun 2024, timestep = 1000000, units = real

1512 atoms
7 atom types
1584 bonds
11 bond types
2952 angles
23 angle types
4752 dihedrals
39 dihedral types
1728 impropers
17 improper types

-2.549204873939548 19.670480073936517 xlo xhi
-2.156614307751644 22.525288112747322 ylo yhi
-0.12870652381716496 20.969572749814514 zlo zhi
-2.833968370447509 0 0 xy xz yz

Atom Type Labels

1 c1
2 c2
3 coh
4 hc
5 ho
6 oc
7 oh

Bond Type Labels

1 c1-c1
2 c1-c2
3 c1-coh
4 c1-hc
5 c1-oc
6 c1-oh
7 c2-hc
8 c2-oh
9 coh-hc
10 coh-oc
11 ho-oh

Angle Type Labels

1 c1-c1-c1
2 c1-c1-c2
3 c1-c1-coh
4 c1-c1-hc
5 c1-c1-oc
6 c1-c1-oh
7 c1-c2-hc
8 c1-c2-oh
9 c1-coh-hc
10 c1-coh-oc
11 c1-oc-coh
12 c1-oh-ho
13 c2-c1-hc
14 c2-c1-oc
15 c2-oh-ho
16 coh-c1-hc
17 coh-c1-oh
18 hc-c1-oc
19 hc-c1-oh
20 hc-c2-hc
21 hc-c2-oh
22 hc-coh-oc
23 oc-coh-oc

Dihedral Type Labels

1 c1-c1-c1-c1
2 c1-c1-c1-c2
3 c1-c1-c1-coh
4 hc-c1-c1-hc
5 c1-c1-c1-hc
6 c2-c1-c1-hc
7 coh-c1-c1-hc
8 c1-c1-c1-oc
9 c2-c1-c1-oc
10 oc-c1-c1-oc
11 hc-c1-c1-oc
12 coh-c1-c1-oh
13 oc-c1-c1-oh
14 c1-c1-c1-oh
15 hc-c1-c1-oh
16 oh-c1-c1-oh
17 hc-c1-c2-hc
18 c1-c1-c2-hc
19 oc-c1-c2-oh
20 c1-c1-c2-oh
21 hc-c1-c2-oh
22 hc-c1-coh-hc
23 c1-c1-coh-hc
24 c1-c1-coh-oc
25 hc-c1-coh-oc
26 c2-c1-oc-coh
27 c1-c1-oc-coh
28 c1-c1-oh-ho
29 hc-c1-oh-ho
30 coh-c1-oh-ho
31 hc-c2-c1-oc
32 c1-c2-oh-ho
33 hc-c2-oh-ho
34 oc-coh-c1-oh
35 hc-coh-c1-oh
36 c1-coh-oc-c1
37 hc-c1-oc-coh
38 hc-coh-oc-c1
39 oc-coh-oc-c1

Improper Type Labels

1 c1-c1-c1-hc-nb!=3
2 c1-c1-c1-oc-nb!=3
3 c1-c1-c1-oh-nb!=3
4 c1-c1-c2-hc-nb!=3
5 c1-c1-c2-oc-nb!=3
6 c1-c1-coh-hc-nb!=3
7 c1-c1-coh-oh-nb!=3
8 c1-c1-hc-oc-nb!=3
9 c1-c1-hc-oh-nb!=3
10 c1-c2-hc-hc-nb!=3
11 c1-c2-hc-oh-nb!=3
12 c1-coh-hc-oc-nb!=3
13 c1-coh-oc-oc-nb!=3
14 c2-c1-hc-oc-nb!=3
15 coh-c1-hc-oh-nb!=3
16 hc-c2-hc-oh-nb!=3
17 hc-coh-oc-oc-nb!=3

Masses

1 12.01115
2 12.01115
3 12.01115
4 1.00797
5 1.00797
6 15.9994
7 15.9994

Pair Coeffs # lj/class2/coul/long

1 0.054 4.01
2 0.054 4.01
3 0.054 4.01
4 0.02 2.3
5 0.013 1.098
6 0.24 3.535
7 0.24 3.535

Bond Coeffs # morse

1 82.6961 2 1.53
2 82.6961 2 1.53
3 82.6961 2 1.53
4 98.2315 2 1.101
5 138.265 1.9 1.42
6 85.5641 2.3 1.42
7 98.2315 2 1.101
8 85.5641 2.3 1.42
9 98.2315 2 1.101
10 138.265 1.9 1.42
11 109.704 2.3 0.965

Angle Coeffs # class2xe

1 112.67 39.516 -7.443 -9.5583
2 112.67 39.516 -7.443 -9.5583
3 112.67 39.516 -7.443 -9.5583
4 110.77 41.453 -10.604 5.129
5 111.27 54.5381 -8.3642 -13.0838
6 111.27 54.5381 -8.3642 -13.0838
7 110.77 41.453 -10.604 5.129
8 111.27 54.5381 -8.3642 -13.0838
9 110.77 41.453 -10.604 5.129
10 111.27 54.5381 -8.3642 -13.0838
11 104.5 35.7454 -10.0067 -6.2729
12 105.8 52.7061 -12.109 -9.8681
13 110.77 41.453 -10.604 5.129
14 111.27 54.5381 -8.3642 -13.0838
15 105.8 52.7061 -12.109 -9.8681
16 110.77 41.453 -10.604 5.129
17 111.27 54.5381 -8.3642 -13.0838
18 108.728 58.5446 -10.8088 -12.4006
19 108.728 58.5446 -10.8088 -12.4006
20 107.66 39.641 -12.921 -2.4318
21 108.728 58.5446 -10.8088 -12.4006
22 108.728 58.5446 -10.8088 -12.4006
23 109.5 70 0 0

BondBond Coeffs

1 82.6961 0 1.53 1.53
2 82.6961 0 1.53 1.53
3 82.6961 0 1.53 1.53
4 90.4638 0.136826 1.53 1.101
5 110.481 0.227457 1.53 1.42
6 84.1301 0.260655 1.53 1.42
7 90.4638 0.136826 1.53 1.101
8 84.1301 0.260655 1.53 1.42
9 90.4638 0.136826 1.53 1.101
10 110.481 0.227457 1.53 1.42
11 138.265 0.160383 1.42 1.42
12 97.6339 0.222741 1.42 0.965
13 90.4638 0.136826 1.53 1.101
14 110.481 0.227457 1.53 1.42
15 97.6339 0.222741 1.42 0.965
16 90.4638 0.136826 1.53 1.101
17 84.1301 0.260655 1.53 1.42
18 118.248 0.313193 1.101 1.42
19 91.8978 0.355269 1.101 1.42
20 98.2315 0.164736 1.101 1.101
21 91.8978 0.355269 1.101 1.42
22 118.248 0.313193 1.101 1.42
23 138.265 0 1.42 1.42

BondAngle Coeffs

1 82.6961 82.6961 0.220151 0.220151 1.53 1.53
2 82.6961 82.6961 0.220151 0.220151 1.53 1.53
3 82.6961 82.6961 0.220151 0.220151 1.53 1.53
4 82.6961 98.2315 0.354237 0.241108 1.53 1.101
5 82.6961 138.265 0.127456 0.271631 1.53 1.42
6 82.6961 85.5641 0.127456 0.345294 1.53 1.42
7 82.6961 98.2315 0.354237 0.241108 1.53 1.101
8 82.6961 85.5641 0.127456 0.345294 1.53 1.42
9 82.6961 98.2315 0.354237 0.241108 1.53 1.101
10 82.6961 138.265 0.127456 0.271631 1.53 1.42
11 138.265 138.265 0.100827 0.100827 1.42 1.42
12 85.5641 109.704 0.408668 0.293713 1.42 0.965
13 82.6961 98.2315 0.354237 0.241108 1.53 1.101
14 82.6961 138.265 0.127456 0.271631 1.53 1.42
15 85.5641 109.704 0.408668 0.293713 1.42 0.965
16 82.6961 98.2315 0.354237 0.241108 1.53 1.101
17 82.6961 85.5641 0.127456 0.345294 1.53 1.42
18 98.2315 138.265 0.153331 0.447298 1.101 1.42
19 98.2315 85.5641 0.153331 0.568601 1.101 1.42
20 98.2315 98.2315 0.303553 0.303553 1.101 1.101
21 98.2315 85.5641 0.153331 0.568601 1.101 1.42
22 98.2315 138.265 0.153331 0.447298 1.101 1.42
23 138.265 138.265 0 0 1.42 1.42

Dihedral Coeffs # class2xe

1 0 0 0.0514 0 -0.143 0
2 0 0 0.0514 0 -0.143 0
3 0 0 0.0514 0 -0.143 0
4 -0.1432 0 0.0617 0 -0.1083 0
5 0 0 0.0316 0 -0.1681 0
6 0 0 0.0316 0 -0.1681 0
7 0 0 0.0316 0 -0.1681 0
8 0.7137 0 0.266 0 -0.2545 0
9 0.7137 0 0.266 0 -0.2545 0
10 -0.182 0 -0.1084 0 -0.7047 0
11 -0.1435 0 0.253 0 -0.0905 0
12 0.7137 0 0.266 0 -0.2545 0
13 -0.182 0 -0.1084 0 -0.7047 0
14 0.7137 0 0.266 0 -0.2545 0
15 -0.1435 0 0.253 0 -0.0905 0
16 -0.182 0 -0.1084 0 -0.7047 0
17 -0.1432 0 0.0617 0 -0.1083 0
18 0 0 0.0316 0 -0.1681 0
19 -0.182 0 -0.1084 0 -0.7047 0
20 0.7137 0 0.266 0 -0.2545 0
21 -0.1435 0 0.253 0 -0.0905 0
22 -0.1432 0 0.0617 0 -0.1083 0
23 0 0 0.0316 0 -0.1681 0
24 0.7137 0 0.266 0 -0.2545 0
25 -0.1435 0 0.253 0 -0.0905 0
26 -0.5203 0 -0.3028 0 -0.345 0
27 -0.5203 0 -0.3028 0 -0.345 0
28 -0.6732 0 -0.4778 0 -0.167 0
29 0.1863 0 -0.4338 0 -0.2121 0
30 -0.6732 0 -0.4778 0 -0.167 0
31 -0.1435 0 0.253 0 -0.0905 0
32 -0.6732 0 -0.4778 0 -0.167 0
33 0.1863 0 -0.4338 0 -0.2121 0
34 -0.182 0 -0.1084 0 -0.7047 0
35 -0.1435 0 0.253 0 -0.0905 0
36 -0.5203 0 -0.3028 0 -0.345 0
37 0.5302 0 0 0 -0.3966 0
38 0.5302 0 0 0 -0.3966 0
39 0 0 0 0 0.13 0

AngleAngleTorsion Coeffs

1 -22.045 112.67 112.67
2 -22.045 112.67 112.67
3 -22.045 112.67 112.67
4 -12.564 110.77 110.77
5 -16.164 112.67 110.77
6 -16.164 112.67 110.77
7 -16.164 112.67 110.77
8 -29.042 112.67 111.27
9 -29.042 112.67 111.27
10 -14.0484 111.27 111.27
11 -20.2006 110.77 111.27
12 -29.042 112.67 111.27
13 -14.0484 111.27 111.27
14 -29.042 112.67 111.27
15 -20.2006 110.77 111.27
16 -14.0484 111.27 111.27
17 -12.564 110.77 110.77
18 -16.164 112.67 110.77
19 -14.0484 111.27 111.27
20 -29.042 112.67 111.27
21 -20.2006 110.77 111.27
22 -12.564 110.77 110.77
23 -16.164 112.67 110.77
24 -29.042 112.67 111.27
25 -20.2006 110.77 111.27
26 -19.0059 111.27 104.5
27 -19.0059 111.27 104.5
28 -12.1038 111.27 105.8
29 -10.5093 108.728 105.8
30 -12.1038 111.27 105.8
31 -20.2006 110.77 111.27
32 -12.1038 111.27 105.8
33 -10.5093 108.728 105.8
34 -14.0484 111.27 111.27
35 -20.2006 110.77 111.27
36 -19.0059 111.27 104.5
37 -16.4438 108.728 104.5
38 -16.4438 108.728 104.5
39 0 109.5 104.5

EndBondTorsion Coeffs

1 2 2 -0.0732 0 0 -0.0732 0 0 1.53 1.53
2 2 2 -0.0732 0 0 -0.0732 0 0 1.53 1.53
3 2 2 -0.0732 0 0 -0.0732 0 0 1.53 1.53
4 2 2 0.213 0.312 0.0777 0.213 0.312 0.0777 1.101 1.101
5 2 2 0.2486 0.2422 -0.0925 0.0814 0.0591 0.2219 1.53 1.101
6 2 2 0.2486 0.2422 -0.0925 0.0814 0.0591 0.2219 1.53 1.101
7 2 2 0.2486 0.2422 -0.0925 0.0814 0.0591 0.2219 1.53 1.101
8 2 1.9 -0.319 0.4411 -0.7174 1.1538 0.8409 -0.9138 1.53 1.42
9 2 1.9 -0.319 0.4411 -0.7174 1.1538 0.8409 -0.9138 1.53 1.42
10 1.9 1.9 1.0165 0.7553 -0.4609 1.0165 0.7553 -0.4609 1.42 1.42
11 2 1.9 0.9681 0.9551 0.0436 0.5903 0.6669 0.8584 1.101 1.42
12 2 2.3 -0.319 0.4411 -0.7174 1.1538 0.8409 -0.9138 1.53 1.42
13 1.9 2.3 1.0165 0.7553 -0.4609 1.0165 0.7553 -0.4609 1.42 1.42
14 2 2.3 -0.319 0.4411 -0.7174 1.1538 0.8409 -0.9138 1.53 1.42
15 2 2.3 0.9681 0.9551 0.0436 0.5903 0.6669 0.8584 1.101 1.42
16 2.3 2.3 1.0165 0.7553 -0.4609 1.0165 0.7553 -0.4609 1.42 1.42
17 2 2 0.213 0.312 0.0777 0.213 0.312 0.0777 1.101 1.101
18 2 2 0.2486 0.2422 -0.0925 0.0814 0.0591 0.2219 1.53 1.101
19 1.9 2.3 1.0165 0.7553 -0.4609 1.0165 0.7553 -0.4609 1.42 1.42
20 2 2.3 -0.319 0.4411 -0.7174 1.1538 0.8409 -0.9138 1.53 1.42
21 2 2.3 0.9681 0.9551 0.0436 0.5903 0.6669 0.8584 1.101 1.42
22 2 2 0.213 0.312 0.0777 0.213 0.312 0.0777 1.101 1.101
23 2 2 0.2486 0.2422 -0.0925 0.0814 0.0591 0.2219 1.53 1.101
24 2 1.9 -0.319 0.4411 -0.7174 1.1538 0.8409 -0.9138 1.53 1.42
25 2 1.9 0.9681 0.9551 0.0436 0.5903 0.6669 0.8584 1.101 1.42
26 2 1.9 -0.2456 1.0517 -0.7795 0.4741 1.2635 0.5576 1.53 1.42
27 2 1.9 -0.2456 1.0517 -0.7795 0.4741 1.2635 0.5576 1.53 1.42
28 2 2.3 -0.58 0.9004 0 0 0.5343 0.9025 1.53 0.965
29 2 2.3 -1.7554 1.3145 0.2263 0.2493 0.6803 0 1.101 0.965
30 2 2.3 -0.58 0.9004 0 0 0.5343 0.9025 1.53 0.965
31 2 1.9 0.9681 0.9551 0.0436 0.5903 0.6669 0.8584 1.101 1.42
32 2 2.3 -0.58 0.9004 0 0 0.5343 0.9025 1.53 0.965
33 2 2.3 -1.7554 1.3145 0.2263 0.2493 0.6803 0 1.101 0.965
34 1.9 2.3 1.0165 0.7553 -0.4609 1.0165 0.7553 -0.4609 1.42 1.42
35 2 2.3 0.9681 0.9551 0.0436 0.5903 0.6669 0.8584 1.101 1.42
36 2 1.9 -0.2456 1.0517 -0.7795 0.4741 1.2635 0.5576 1.53 1.42
37 2 1.9 -0.6054 1.3339 0.9648 -0.162 0.1564 -1.1408 1.101 1.42
38 2 1.9 -0.6054 1.3339 0.9648 -0.162 0.1564 -1.1408 1.101 1.42
39 1.9 1.9 0 0 0 0 0 0 1.42 1.42

MiddleBondTorsion Coeffs

1 2 -17.787 -7.1877 0 1.53
2 2 -17.787 -7.1877 0 1.53
3 2 -17.787 -7.1877 0 1.53
4 2 -14.261 -0.5322 -0.4864 1.53
5 2 -14.879 -3.6581 -0.3138 1.53
6 2 -14.879 -3.6581 -0.3138 1.53
7 2 -14.879 -3.6581 -0.3138 1.53
8 2 -21.8842 -7.6764 -0.6868 1.53
9 2 -21.8842 -7.6764 -0.6868 1.53
10 2 -17.2585 -3.6157 -0.8364 1.53
11 2 -16.7975 -1.2296 -0.275 1.53
12 2 -21.8842 -7.6764 -0.6868 1.53
13 2 -17.2585 -3.6157 -0.8364 1.53
14 2 -21.8842 -7.6764 -0.6868 1.53
15 2 -16.7975 -1.2296 -0.275 1.53
16 2 -17.2585 -3.6157 -0.8364 1.53
17 2 -14.261 -0.5322 -0.4864 1.53
18 2 -14.879 -3.6581 -0.3138 1.53
19 2 -17.2585 -3.6157 -0.8364 1.53
20 2 -21.8842 -7.6764 -0.6868 1.53
21 2 -16.7975 -1.2296 -0.275 1.53
22 2 -14.261 -0.5322 -0.4864 1.53
23 2 -14.879 -3.6581 -0.3138 1.53
24 2 -21.8842 -7.6764 -0.6868 1.53
25 2 -16.7975 -1.2296 -0.275 1.53
26 1.9 -5.9288 -2.7007 -0.3175 1.42
27 1.9 -5.9288 -2.7007 -0.3175 1.42
28 2.3 1.2472 0 0.7485 1.42
29 2.3 0 0.9241 -0.5889 1.42
30 2.3 1.2472 0 0.7485 1.42
31 2 -16.7975 -1.2296 -0.275 1.53
32 2.3 1.2472 0 0.7485 1.42
33 2.3 0 0.9241 -0.5889 1.42
34 2 -17.2585 -3.6157 -0.8364 1.53
35 2 -16.7975 -1.2296 -0.275 1.53
36 1.9 -5.9288 -2.7007 -0.3175 1.42
37 1.9 -6.8007 -4.6546 -1.4101 1.42
38 1.9 -6.8007 -4.6546 -1.4101 1.42
39 1.9 0 0 0 1.42

BondBond13 Coeffs

1 82.6961 0 1.53 1.53
2 82.6961 0 1.53 1.53
3 82.6961 0 1.53 1.53
4 98.2315 0 1.101 1.101
5 90.4638 0 1.53 1.101
6 90.4638 0 1.53 1.101
7 90.4638 0 1.53 1.101
8 110.481 0 1.53 1.42
9 110.481 0 1.53 1.42
10 138.265 0 1.42 1.42
11 118.248 0 1.101 1.42
12 84.1301 0 1.53 1.42
13 111.915 0 1.42 1.42
14 84.1301 0 1.53 1.42
15 91.8978 0 1.101 1.42
16 85.5641 0 1.42 1.42
17 98.2315 0 1.101 1.101
18 90.4638 0 1.53 1.101
19 111.915 0 1.42 1.42
20 84.1301 0 1.53 1.42
21 91.8978 0 1.101 1.42
22 98.2315 0 1.101 1.101
23 90.4638 0 1.53 1.101
24 110.481 0 1.53 1.42
25 118.248 0 1.101 1.42
26 110.481 0 1.53 1.42
27 110.481 0 1.53 1.42
28 96.2 0 1.53 0.965
29 103.968 0 1.101 0.965
30 96.2 0 1.53 0.965
31 118.248 0 1.101 1.42
32 96.2 0 1.53 0.965
33 103.968 0 1.101 0.965
34 111.915 0 1.42 1.42
35 91.8978 0 1.101 1.42
36 110.481 0 1.53 1.42
37 118.248 0 1.101 1.42
38 118.248 0 1.101 1.42
39 138.265 0 1.42 1.42

AngleTorsion Coeffs

1 0.3886 -0.3139 0.1389 0.3886 -0.3139 0.1389 112.67 112.67
2 0.3886 -0.3139 0.1389 0.3886 -0.3139 0.1389 112.67 112.67
3 0.3886 -0.3139 0.1389 0.3886 -0.3139 0.1389 112.67 112.67
4 -0.8085 0.5569 -0.2466 -0.8085 0.5569 -0.2466 110.77 110.77
5 -0.2454 0 -0.1136 0.3113 0.4516 -0.1988 112.67 110.77
6 -0.2454 0 -0.1136 0.3113 0.4516 -0.1988 112.67 110.77
7 -0.2454 0 -0.1136 0.3113 0.4516 -0.1988 112.67 110.77
8 0.5623 -0.3041 -0.4015 0.9672 -0.7566 -1.2331 112.67 111.27
9 0.5623 -0.3041 -0.4015 0.9672 -0.7566 -1.2331 112.67 111.27
10 0.5511 0.9737 -0.6673 0.5511 0.9737 -0.6673 111.27 111.27
11 2.3668 2.492 -1.0122 -0.1892 0.4918 0.7273 110.77 111.27
12 0.5623 -0.3041 -0.4015 0.9672 -0.7566 -1.2331 112.67 111.27
13 0.5511 0.9737 -0.6673 0.5511 0.9737 -0.6673 111.27 111.27
14 0.5623 -0.3041 -0.4015 0.9672 -0.7566 -1.2331 112.67 111.27
15 2.3668 2.492 -1.0122 -0.1892 0.4918 0.7273 110.77 111.27
16 0.5511 0.9737 -0.6673 0.5511 0.9737 -0.6673 111.27 111.27
17 -0.8085 0.5569 -0.2466 -0.8085 0.5569 -0.2466 110.77 110.77
18 -0.2454 0 -0.1136 0.3113 0.4516 -0.1988 112.67 110.77
19 0.5511 0.9737 -0.6673 0.5511 0.9737 -0.6673 111.27 111.27
20 0.5623 -0.3041 -0.4015 0.9672 -0.7566 -1.2331 112.67 111.27
21 2.3668 2.492 -1.0122 -0.1892 0.4918 0.7273 110.77 111.27
22 -0.8085 0.5569 -0.2466 -0.8085 0.5569 -0.2466 110.77 110.77
23 -0.2454 0 -0.1136 0.3113 0.4516 -0.1988 112.67 110.77
24 0.5623 -0.3041 -0.4015 0.9672 -0.7566 -1.2331 112.67 111.27
25 2.3668 2.492 -1.0122 -0.1892 0.4918 0.7273 110.77 111.27
26 -2.7466 1.4877 -0.8955 0.5676 0.945 0.0703 111.27 104.5
27 -2.7466 1.4877 -0.8955 0.5676 0.945 0.0703 111.27 104.5
28 -3.5903 2.5225 0.4888 0.8726 -0.3577 0.3888 111.27 105.8
29 -3.406 1.6396 0.0737 0 -0.281 -0.5944 108.728 105.8
30 -3.5903 2.5225 0.4888 0.8726 -0.3577 0.3888 111.27 105.8
31 2.3668 2.492 -1.0122 -0.1892 0.4918 0.7273 110.77 111.27
32 -3.5903 2.5225 0.4888 0.8726 -0.3577 0.3888 111.27 105.8
33 -3.406 1.6396 0.0737 0 -0.281 -0.5944 108.728 105.8
34 0.5511 0.9737 -0.6673 0.5511 0.9737 -0.6673 111.27 111.27
35 2.3668 2.492 -1.0122 -0.1892 0.4918 0.7273 110.77 111.27
36 -2.7466 1.4877 -0.8955 0.5676 0.945 0.0703 111.27 104.5
37 -1.8234 1.6393 0.5144 -0.7777 0.434 -0.6653 108.728 104.5
38 -1.8234 1.6393 0.5144 -0.7777 0.434 -0.6653 108.728 104.5
39 0 0 0 0 0 0 109.5 104.5

Improper Coeffs # class2

1 0 0
2 0 0
3 0 0
4 0 0
5 0 0
6 0 0
7 0 0
8 0 0
9 0 0
10 0 0
11 0 0
12 0 0
13 0 0
14 0 0
15 0 0
16 0 0
17 0 0

AngleAngle Coeffs

1 -1.3199 -1.3199 0.1184 112.67 110.77 110.77
2 -0.833 -0.833 -3.5744 112.67 111.27 111.27
3 -0.833 -0.833 -3.5744 112.67 111.27 111.27
4 -1.3199 -1.3199 0.1184 112.67 110.77 110.77
5 -0.833 -0.833 -3.5744 112.67 111.27 111.27
6 -1.3199 -1.3199 0.1184 112.67 110.77 110.77
7 -0.833 -0.833 -3.5744 112.67 111.27 111.27
8 3.9177 2.5926 0.1689 110.77 111.27 108.728
9 3.9177 2.5926 0.1689 110.77 111.27 108.728
10 0.2738 -0.4825 0.2738 110.77 110.77 107.66
11 3.9177 2.5926 0.1689 110.77 111.27 108.728
12 3.9177 2.5926 0.1689 110.77 111.27 108.728
13 0 0 0 111.27 109.5 111.27
14 3.9177 2.5926 0.1689 110.77 111.27 108.728
15 3.9177 2.5926 0.1689 110.77 111.27 108.728
16 2.4259 2.4259 2.1283 107.66 108.728 108.728
17 0 0 0 108.728 109.5 108.728

Atoms # full

22 2 4 0.063 2.307107115867028 2.507895904204794 1.687776171726293 0 0 0
38 1 5 0.424 0.01607229042926317 2.8435902911194457 6.168043035122867 0 0 0
39 1 5 0.424 -0.29306806282174946 3.0364861756989416 2.663786527525759 0 0 0
43 1 3 0.243 0.2089775415342574 0.30689193341508414 5.687109748338714 0 0 0
44 1 4 0.063 -0.7995161950238037 -0.020246967832915352 5.95021934952416 0 0 0
45 1 1 0.213 0.33201190302171035 1.525600987073985 4.774864754464305 0 0 0
46 1 4 0.063 1.4781879828137647 1.7409766901628894 4.747464265485034 0 0 0
47 1 1 0.213 -0.12837157750840644 1.1756775873411454 3.352291573424807 0 0 0
48 1 4 0.063 -1.191385835415514 0.9738796318354517 3.247128322563963 0 0 0
49 1 1 0.213 0.4863510568385374 -0.22423298200789743 2.8527964131273573 0 0 0
50 1 4 0.063 1.51457456281035 -0.06124660259446735 2.546475409660701 0 0 0
51 1 1 0.213 0.2821214250091115 -1.2832576939970957 4.003567769756373 0 0 0
52 1 4 0.063 -0.809829527044182 -1.409554070238023 4.084196103218134 0 0 0
56 1 7 -0.68 -0.45706563940528255 2.608433910811166 5.334825461287268 0 0 0
57 1 7 -0.68 0.19039968514381256 2.246912842998717 2.4173932542176413 0 0 0
58 1 6 -0.5091 -0.24465826438904203 -0.6615356849975222 1.6824431146825536 0 0 0
59 1 6 -0.5091 0.9011949758326239 -0.8644576279496279 5.227276219412017 0 0 0
66 2 4 0.063 2.2566160898755445 5.339053872478876 5.614166415655303 0 0 0
188 6 4 0.063 -2.5002549990593654 3.684238562526626 3.0278942704324936 1 0 0
192 6 4 0.063 -2.3321724460711506 3.1546041160123215 0.6675684154451866 1 0 0
196 6 4 0.063 -2.377865655058777 5.362368591080543 1.165878127226819 1 0 0
236 6 4 0.063 -2.534468957113612 3.9587896389591384 5.1397000469272704 1 0 0
289 7 5 0.424 0.3102446025871921 5.19799416189579 1.9970144912160133 0 0 0
305 7 2 0.2503 0.07378990860645329 5.5973687853663 3.7453548509082526 0 0 0
307 7 4 0.063 0.15642764218216376 4.85954407825882 4.568360872813541 0 0 0
312 7 7 -0.68 -0.391783611857786 4.887574237641081 2.612827322843497 0 0 0
2 1 4 0.063 1.4253891641725525 -0.12783565026758792 0.5530451419105337 0 0 0
1 1 3 0.243 0.390255417004282 -0.5062385998927992 0.38928606867136106 0 0 0
70 2 4 0.063 2.492727937093864 2.8335425790575597 6.455262150095838 0 0 0
240 6 4 0.063 -2.478338213901001 1.355042194614834 6.528360079127729 1 0 0
306 7 4 0.063 1.1973628935995735 5.781727691977465 3.5891623499875207 0 0 0
1022 7 7 -0.68 0.4693630214318607 5.591278557710393 0.0034376410735520724 0 0 1
81 1 5 0.424 1.4137830817634782 -2.0897908224672332 6.883304539393805 0 0 0
703 18 4 0.063 -2.549893915536552 -0.9909915100333875 1.7815502588633054 1 1 0
232 6 4 0.063 -2.5520672622258083 5.847375470372757 6.886340333111083 1 0 0
76 2 6 -0.5091 3.0054037112895307 3.4668900423126052 4.04861197378103 0 0 0
534 14 4 0.063 3.248795432067162 -1.3819411193461328 1.2745822976590298 0 1 0
35 2 6 -0.5091 3.2489110352303197 4.931549583934104 2.35703883975808 0 0 0
42 2 5 0.424 3.66940771590256 -0.16430501582422719 5.081709047117765 0 0 0
65 2 1 0.213 3.3458746931535384 5.309134070220246 5.593429624531969 0 0 0
69 2 1 0.213 3.528334743439104 2.8969879644748557 6.3343934444431715 0 0 0
83 2 5 0.424 3.6868490692139204 1.181737498752908 3.120196193437186 0 0 0
19 2 3 0.243 3.700333959432638 3.6713659682476782 2.771642118821568 0 0 0
20 2 4 0.063 4.87044429889174 3.6421048648828718 2.906325387914092 0 0 0
21 2 1 0.213 3.3891467828563986 2.4881663675458405 1.752859136665802 0 0 0
23 2 1 0.213 3.9537650010771346 2.921400142769915 0.40004364508826584 0 0 0
24 2 4 0.063 5.07350838836954 2.9474886649666283 0.5087331892080337 0 0 0
27 2 1 0.213 3.830317717726163 5.35411142489797 1.121802235341507 0 0 0
28 2 4 0.063 4.9560182508592305 5.4071385061180886 1.160881103288239 0 0 0
32 2 7 -0.68 3.937668868622943 1.237858458181123 2.168158571710458 0 0 0
67 2 1 0.213 3.762881658568885 3.8577662138572277 5.184645810944166 0 0 0
68 2 4 0.063 4.838360621868919 3.7549734990784254 4.986907590969635 0 0 0
78 2 7 -0.68 3.7201866783097772 0.7968582582547361 4.869181613191907 0 0 0
85 3 3 0.243 7.910090054003746 -0.44500644745508455 0.5012337884135164 0 0 0
86 3 4 0.063 8.977750028804124 -0.1045560058455055 0.726604037561164 0 0 0
106 4 4 0.063 9.819815036222192 2.448231131604789 1.6963372626240363 0 0 0
119 4 6 -0.5091 10.581133219922064 4.7966863316555655 2.3037534162405273 0 0 0
122 3 5 0.424 7.340421635387155 2.7743423091327877 6.206931539753242 0 0 0
123 3 5 0.424 7.217097783757916 1.5378621581469751 1.6265417832433384 0 0 0
127 3 3 0.243 7.725109560667024 0.23447057189973375 5.767995148070017 0 0 0
128 3 4 0.063 6.681893253771721 -0.0703002955361769 5.922242483032895 0 0 0
129 3 1 0.213 7.835184713243116 1.4839116092256348 4.767688830915016 0 0 0
130 3 4 0.063 8.882643826336414 1.7982765414929482 4.782203881248132 0 0 0
131 3 1 0.213 7.408182505598136 1.038278496843648 3.3292667271693084 0 0 0
132 3 4 0.063 6.325165197980986 0.8366779241952713 3.350566376335717 0 0 0
133 3 1 0.213 8.04048368411595 -0.2796646057251868 2.8640078440989796 0 0 0
134 3 4 0.063 9.111268937486372 -0.09845814833627431 2.6591981760871612 0 0 0
135 3 1 0.213 7.888566416805967 -1.343087356541805 4.033211155547523 0 0 0
136 3 4 0.063 6.789135022571763 -1.3734607407932353 4.224105781476729 0 0 0
140 3 7 -0.68 7.032320106027097 2.608162503411739 5.25554751981435 0 0 0
141 3 7 -0.68 7.551211997904845 2.072763279697372 2.366817619522831 0 0 0
142 3 6 -0.5091 7.344954833790817 -0.8162413375204807 1.7233861174829 0 0 0
143 3 6 -0.5091 8.503087824734182 -0.7962044638488048 5.258291080344655 0 0 0
149 4 1 0.213 10.706052731287334 5.1257104123109265 5.6864173862890794 0 0 0
150 4 4 0.063 9.590194696092047 5.0409340880335405 5.735512452949261 0 0 0
160 4 6 -0.5091 10.48296422945659 3.379150291401861 4.006961767924655 0 0 0
373 9 5 0.424 7.469695755932662 3.8589653412705065 2.6640892798089038 0 0 0
389 9 2 0.2503 7.712070944281098 5.561137644365434 3.48741096072962 0 0 0
391 9 4 0.063 7.750991988950881 4.828048991238752 4.376301358704442 0 0 0
396 9 7 -0.68 7.152823288259295 4.765791722710566 2.4072274257726884 0 0 0
416 9 5 0.424 7.555424612352594 5.382795580017817 0.7222637608623393 0 0 0
533 14 2 0.2503 4.344078567293272 -1.4644288774344478 1.0672231434695487 0 1 0
535 14 4 0.063 4.876713984678456 -0.9941057860182618 1.967049137012855 0 1 0
153 4 1 0.213 10.816824472546815 2.751824695665051 6.319295082319013 0 0 0
71 2 2 0.2503 3.945187543108582 1.3835914755494243 6.196724612045992 0 0 0
105 4 1 0.213 10.935998322902405 2.4829449396341756 1.825568020686336 0 0 0
618 16 4 0.063 10.670939629559491 -1.648546169520686 1.0687997303012393 0 1 0
109 4 1 0.213 11.064129975635261 4.2301591415857684 -0.08701975675600834 0 0 0
72 2 4 0.063 5.080580195776666 1.3495379784998756 6.304231290124621 0 0 0
40 2 5 0.424 3.50027144191972 5.822248527095844 3.789888346304009 0 0 0
154 4 4 0.063 9.701167041216381 2.6698202014081103 6.337887958278278 0 0 0
390 9 4 0.063 8.749651137067474 5.8815980873330105 3.400665418803029 0 0 0
25 2 1 0.213 3.561289634231475 4.369541499067149 -0.04301186553356058 0 0 0
162 4 7 -0.68 11.243415029587059 0.5723989278644579 4.912576662737541 0 0 0
167 4 5 0.424 11.215962380872497 1.0517891021678207 3.147720039028891 0 0 0
124 4 5 0.424 11.006307340425197 5.764909650843733 3.967241672899685 0 0 0
857 3 6 -0.5091 7.171915689304415 0.5984594400725691 -0.0601447479147085 0 0 1
151 4 1 0.213 11.175157866467966 3.719236694791304 5.2168003856592895 0 0 0
155 4 2 0.2503 11.2877287932757 1.199201185935915 6.198207920993839 0 0 0
111 4 1 0.213 11.304098913888918 5.257791399764956 1.1447314672683875 0 0 0
1344 14 5 0.424 4.999886300873103 0.0047412279828371595 0.0031616459459818114 0 1 1
579 14 7 -0.68 4.826987194714606 -1.9525571763960392 4.989546206335136 0 1 0
165 3 5 0.424 8.623876429312874 -1.936069902508337 6.865738228908617 0 0 0
103 4 3 0.243 11.16456412935622 3.6485183025834402 2.775138222445237 0 0 0
64 2 4 0.063 4.966640386555486 5.665049945496478 6.822856341738766 0 0 0
126 4 5 0.424 11.449721862408996 -0.3762502956962843 4.943573794565506 0 0 0
107 4 1 0.213 11.53340165421822 2.7871072556100094 0.40273927422910794 0 0 0
116 4 7 -0.68 11.496173553325963 1.2073595828645516 2.22185490950953 0 0 0
208 6 5 0.424 18.055850097745765 5.700017046673744 3.9740939324793416 0 0 0
195 6 1 0.213 18.727442277212994 5.348986085115758 1.000238269673644 0 0 0
747 18 7 -0.68 19.21939985630787 -1.970465170132369 4.727396803088461 0 1 0
617 16 2 0.2503 11.790816209856397 -1.5730316052773516 0.9402175423580792 0 1 0
210 6 5 0.424 18.725598155649042 -0.1819900021577847 5.218458145643826 0 0 0
246 6 7 -0.68 18.515271915305682 0.7542365042719106 5.007129397149404 0 0 0
619 16 4 0.063 12.166596441236228 -1.076056433955401 1.8539335381270818 0 1 0
239 6 2 0.2503 18.664896201577438 1.3867009675225495 6.26240878429865 0 0 0
191 6 1 0.213 18.816877066337565 2.9719548115428065 0.4384414756042704 0 0 0
702 18 4 0.063 18.120280233532743 -1.2468140458275379 1.2967588207731982 0 1 0
701 18 2 0.2503 19.132727818653496 -1.5749749296036515 0.999408164675885 0 1 0
251 6 5 0.424 18.36526231952634 1.1570621175094455 3.090894471145138 0 0 0
104 4 4 0.063 12.239677217190014 3.839862004532728 3.0305469820047137 0 0 0
108 4 4 0.063 12.618141161321807 2.8820397069466868 0.431765477771221 0 0 0
112 4 4 0.063 12.445768390252914 5.246482681259776 1.1995988574059244 0 0 0
152 4 4 0.063 12.232662029990811 3.7853800306212717 5.16822863808236 0 0 0
169 5 3 0.243 15.312855843073358 -0.37589639906990024 0.48994446500480815 0 0 0
170 5 4 0.063 16.336202341784038 -0.02311821282939741 0.6646318728988478 0 0 0
187 6 3 0.243 18.614173523505745 3.725058527312786 2.796148342320193 0 0 0
189 6 1 0.213 18.22622429027629 2.6109003205260626 1.816381155047952 0 0 0
190 6 4 0.063 17.124827549549337 2.5219550675402003 1.7135552882109795 0 0 0
200 6 7 -0.68 18.837542098802793 1.3721496941573936 2.23202128911623 0 0 0
203 6 6 -0.5091 18.114098539162793 4.95538940639996 2.2704199257426727 0 0 0
206 5 5 0.424 14.594316937308633 2.804632240111016 6.305109517813465 0 0 0
207 5 5 0.424 14.32581989966381 1.6840927363622757 1.7599590901772018 0 0 0
211 5 3 0.243 15.047730704242415 0.27619879865532004 5.8488086737112495 0 0 0
212 5 4 0.063 13.986731055278618 0.13330508568637 6.056210595822226 0 0 0
213 5 1 0.213 15.065644351195413 1.5041074445325848 4.858674935674291 0 0 0
214 5 4 0.063 16.143016740176297 1.7592391039803075 4.758847511238107 0 0 0
215 5 1 0.213 14.606300176817328 1.0204003832853275 3.4837845963255374 0 0 0
216 5 4 0.063 13.569472908721444 0.8037958558628628 3.5975494956142544 0 0 0
217 5 1 0.213 15.203983205177256 -0.2638198456782659 3.000543826318858 0 0 0
218 5 4 0.063 16.232857982608554 0.0756259585771355 2.752708106189562 0 0 0
219 5 1 0.213 15.181982066442895 -1.3647679748545472 4.07421479215711 0 0 0
220 5 4 0.063 14.093858308693438 -1.6190456204439236 4.198179377600351 0 0 0
224 5 7 -0.68 14.367968036717429 2.660571842673485 5.373147982658261 0 0 0
225 5 7 -0.68 14.838231476488136 2.0602865831467065 2.5034966198790305 0 0 0
226 5 6 -0.5091 14.67173036314431 -0.7116785747828951 1.7600141373301772 0 0 0
227 5 6 -0.5091 15.718727910471138 -0.84065212239422 5.317193722888826 0 0 0
233 6 1 0.213 18.058828298495857 5.238115795974757 5.719599516259726 0 0 0
234 6 4 0.063 16.944271152230147 5.189373703862704 5.802906550571692 0 0 0
235 6 1 0.213 18.584616322792535 3.8681467220744796 5.306461505019996 0 0 0
237 6 1 0.213 18.189270953707112 2.8477587208129966 6.383514515905423 0 0 0
244 6 6 -0.5091 17.883102213686655 3.583797545184403 4.069233956609744 0 0 0
457 11 5 0.424 14.799902151968869 3.8907144336373483 2.8977806822651595 0 0 0
473 11 2 0.2503 15.118552457671267 5.642420572847113 3.61741866115139 0 0 0
475 11 4 0.063 15.123104303005448 5.107019399905594 4.589419714156003 0 0 0
480 11 7 -0.68 14.419922414132174 4.773845989420242 2.6842094533355767 0 0 0
500 11 5 0.424 14.872914854485852 5.44567886774205 0.8208070551761806 0 0 0
238 6 4 0.063 17.072988398503103 2.8144252987097467 6.43917287503259 0 0 0
156 4 4 0.063 12.380883891033415 1.1563180650296179 6.47437139324515 0 0 0
193 6 1 0.213 18.409901854953038 4.325941238118905 -0.1277339216813846 0 0 0
663 16 7 -0.68 11.948146499862348 -2.0181814851264144 4.695849099798767 0 1 0
941 5 6 -0.5091 14.532712929197071 0.6673225077796974 -0.07233009128327345 0 0 1
474 11 4 0.063 16.176275691400928 6.017367020976204 3.4034299761553353 0 0 0
1190 11 7 -0.68 15.330982945567353 5.527909077036627 -0.04688180884199064 0 0 1
1428 16 5 0.424 12.023864031772135 0.007116533535392211 -0.09303646957246665 0 1 1
253 7 3 0.243 -0.40192570164084174 7.911415521960725 0.4824829027112375 0 0 0
254 7 4 0.063 0.6812154198368647 8.212127481674898 0.6993074070652894 0 0 0
273 8 1 0.213 2.550764035320203 10.74547785962371 1.860707283300445 0 0 0
274 8 4 0.063 1.4511239988024265 10.825963763298178 1.7795944227681755 0 0 0
287 8 6 -0.5091 2.527073265992195 13.135183840522942 2.443095701814621 0 0 0
290 7 5 0.424 -1.1045409698459654 10.931900429516485 6.167637334864546 0 0 0
291 7 5 0.424 -1.4306932142355964 9.878288967863904 1.6094859398681205 0 0 0
295 7 3 0.243 -0.8376328701033944 8.445373848348735 5.7583615749776165 0 0 0
296 7 4 0.063 -1.8647064386067609 8.026925008646698 5.896612623057232 0 0 0
297 7 1 0.213 -0.8231546546280266 9.729245000425845 4.759366597513932 0 0 0
298 7 4 0.063 0.27244224639461123 10.001485538736285 4.729388507767014 0 0 0
299 7 1 0.213 -1.4472104282499458 9.22085846980716 3.40935130018051 0 0 0
300 7 4 0.063 -2.511465213189756 9.150113790825538 3.7697310729977738 0 0 0
301 7 1 0.213 -0.5426636828979996 8.008996085719454 2.8849888086771758 0 0 0
302 7 4 0.063 0.5156618716397405 8.330433768736235 2.7253583763671037 0 0 0
303 7 1 0.213 -0.634328091897411 6.911677707534356 4.018504896109159 0 0 0
304 7 4 0.063 -1.749007846810316 6.5532031195764535 4.148554479385058 0 0 0
308 7 7 -0.68 -1.6291050811025096 10.750609712896408 5.351194582235773 0 0 0
309 7 7 -0.68 -1.4599389363221442 10.320159264824404 2.478879228392088 0 0 0
310 7 6 -0.5091 -1.1152496410031973 7.561175180724742 1.6770759886647533 0 0 0
311 7 6 -0.5091 -0.07033316846037252 7.391290629260562 5.202482251004132 0 0 0
317 8 1 0.213 2.341642015062103 13.457522492651822 5.78967315296414 0 0 0
318 8 4 0.063 1.2483799248095009 13.648918784553713 5.94188726313859 0 0 0
328 8 6 -0.5091 2.013218492316744 11.744548330461939 4.151326155115183 0 0 0
440 12 4 0.063 -3.55737973122388 11.837497160155166 3.0204634585363523 1 0 0
444 12 4 0.063 -3.194752710690306 11.064278376831142 0.6170758583505692 1 0 0
448 12 4 0.063 -3.3338426869061317 13.522547496388604 1.4100651694548039 1 0 0
488 12 4 0.063 -3.589660621968239 12.11468998942835 5.027521815601812 1 0 0
541 13 5 0.424 -1.114295094551651 12.235885944000756 2.6765377266267243 0 0 0
557 13 2 0.2503 -0.7529930939693821 13.817832585593218 3.7326494647839565 0 0 0
559 13 4 0.063 -0.9328583552110479 13.119750121999912 4.568005729132014 0 0 0
564 13 7 -0.68 -1.081947030172982 13.198505590350457 2.504482514967685 0 0 0
584 13 5 0.424 -0.554896624081417 13.645163897786196 0.8832310633146663 0 0 0
322 8 4 0.063 1.4431124133259825 10.96162914790143 6.425850733385576 0 0 0