LAMMPS data file via write_data, version 27 Jun 2024, timestep = 1000000, units = real

1512 atoms
7 atom types
1584 bonds
11 bond types
2952 angles
23 angle types
4752 dihedrals
39 dihedral types
1728 impropers
17 improper types

-2.711715578004201 19.832990778005904 xlo xhi
-2.1326578803194796 22.5013316853167 ylo yhi
-0.1340499929400636 20.974916218937054 zlo zhi
-2.8284670309912805 0 0 xy xz yz

Atom Type Labels

1 c1
2 c2
3 coh
4 hc
5 ho
6 oc
7 oh

Bond Type Labels

1 c1-c1
2 c1-c2
3 c1-coh
4 c1-hc
5 c1-oc
6 c1-oh
7 c2-hc
8 c2-oh
9 coh-hc
10 coh-oc
11 ho-oh

Angle Type Labels

1 c1-c1-c1
2 c1-c1-c2
3 c1-c1-coh
4 c1-c1-hc
5 c1-c1-oc
6 c1-c1-oh
7 c1-c2-hc
8 c1-c2-oh
9 c1-coh-hc
10 c1-coh-oc
11 c1-oc-coh
12 c1-oh-ho
13 c2-c1-hc
14 c2-c1-oc
15 c2-oh-ho
16 coh-c1-hc
17 coh-c1-oh
18 hc-c1-oc
19 hc-c1-oh
20 hc-c2-hc
21 hc-c2-oh
22 hc-coh-oc
23 oc-coh-oc

Dihedral Type Labels

1 c1-c1-c1-c1
2 c1-c1-c1-c2
3 c1-c1-c1-coh
4 hc-c1-c1-hc
5 c1-c1-c1-hc
6 c2-c1-c1-hc
7 coh-c1-c1-hc
8 c1-c1-c1-oc
9 c2-c1-c1-oc
10 oc-c1-c1-oc
11 hc-c1-c1-oc
12 coh-c1-c1-oh
13 oc-c1-c1-oh
14 c1-c1-c1-oh
15 hc-c1-c1-oh
16 oh-c1-c1-oh
17 hc-c1-c2-hc
18 c1-c1-c2-hc
19 oc-c1-c2-oh
20 c1-c1-c2-oh
21 hc-c1-c2-oh
22 hc-c1-coh-hc
23 c1-c1-coh-hc
24 c1-c1-coh-oc
25 hc-c1-coh-oc
26 c2-c1-oc-coh
27 c1-c1-oc-coh
28 c1-c1-oh-ho
29 hc-c1-oh-ho
30 coh-c1-oh-ho
31 hc-c2-c1-oc
32 c1-c2-oh-ho
33 hc-c2-oh-ho
34 oc-coh-c1-oh
35 hc-coh-c1-oh
36 c1-coh-oc-c1
37 hc-c1-oc-coh
38 hc-coh-oc-c1
39 oc-coh-oc-c1

Improper Type Labels

1 c1-c1-c1-hc-nb!=3
2 c1-c1-c1-oc-nb!=3
3 c1-c1-c1-oh-nb!=3
4 c1-c1-c2-hc-nb!=3
5 c1-c1-c2-oc-nb!=3
6 c1-c1-coh-hc-nb!=3
7 c1-c1-coh-oh-nb!=3
8 c1-c1-hc-oc-nb!=3
9 c1-c1-hc-oh-nb!=3
10 c1-c2-hc-hc-nb!=3
11 c1-c2-hc-oh-nb!=3
12 c1-coh-hc-oc-nb!=3
13 c1-coh-oc-oc-nb!=3
14 c2-c1-hc-oc-nb!=3
15 coh-c1-hc-oh-nb!=3
16 hc-c2-hc-oh-nb!=3
17 hc-coh-oc-oc-nb!=3

Masses

1 12.01115
2 12.01115
3 12.01115
4 1.00797
5 1.00797
6 15.9994
7 15.9994

Pair Coeffs # lj/class2/coul/long

1 0.054 4.01
2 0.054 4.01
3 0.054 4.01
4 0.02 2.3
5 0.013 1.098
6 0.24 3.535
7 0.24 3.535

Bond Coeffs # class2

1 1.53 299.67 -501.77 679.81
2 1.53 299.67 -501.77 679.81
3 1.53 299.67 -501.77 679.81
4 1.101 345 -691.89 844.6
5 1.42 400.395 -835.195 1313.01
6 1.42 400.395 -835.195 1313.01
7 1.101 345 -691.89 844.6
8 1.42 400.395 -835.195 1313.01
9 1.101 345 -691.89 844.6
10 1.42 400.395 -835.195 1313.01
11 0.965 532.506 -1282.9 2004.77

Angle Coeffs # class2

1 112.67 39.516 -7.443 -9.5583
2 112.67 39.516 -7.443 -9.5583
3 112.67 39.516 -7.443 -9.5583
4 110.77 41.453 -10.604 5.129
5 111.27 54.5381 -8.3642 -13.0838
6 111.27 54.5381 -8.3642 -13.0838
7 110.77 41.453 -10.604 5.129
8 111.27 54.5381 -8.3642 -13.0838
9 110.77 41.453 -10.604 5.129
10 111.27 54.5381 -8.3642 -13.0838
11 104.5 35.7454 -10.0067 -6.2729
12 105.8 52.7061 -12.109 -9.8681
13 110.77 41.453 -10.604 5.129
14 111.27 54.5381 -8.3642 -13.0838
15 105.8 52.7061 -12.109 -9.8681
16 110.77 41.453 -10.604 5.129
17 111.27 54.5381 -8.3642 -13.0838
18 108.728 58.5446 -10.8088 -12.4006
19 108.728 58.5446 -10.8088 -12.4006
20 107.66 39.641 -12.921 -2.4318
21 108.728 58.5446 -10.8088 -12.4006
22 108.728 58.5446 -10.8088 -12.4006
23 109.5 70 0 0

BondBond Coeffs

1 0 1.53 1.53
2 0 1.53 1.53
3 0 1.53 1.53
4 3.3872 1.53 1.101
5 11.4318 1.53 1.42
6 11.4318 1.53 1.42
7 3.3872 1.53 1.101
8 11.4318 1.53 1.42
9 3.3872 1.53 1.101
10 11.4318 1.53 1.42
11 -7.1131 1.42 1.42
12 -9.6879 1.42 0.965
13 3.3872 1.53 1.101
14 11.4318 1.53 1.42
15 -9.6879 1.42 0.965
16 3.3872 1.53 1.101
17 11.4318 1.53 1.42
18 23.1979 1.101 1.42
19 23.1979 1.101 1.42
20 5.3316 1.101 1.101
21 23.1979 1.101 1.42
22 23.1979 1.101 1.42
23 0 1.42 1.42

BondAngle Coeffs

1 8.016 8.016 1.53 1.53
2 8.016 8.016 1.53 1.53
3 8.016 8.016 1.53 1.53
4 20.754 11.421 1.53 1.101
5 2.6868 20.4033 1.53 1.42
6 2.6868 20.4033 1.53 1.42
7 20.754 11.421 1.53 1.101
8 2.6868 20.4033 1.53 1.42
9 20.754 11.421 1.53 1.101
10 2.6868 20.4033 1.53 1.42
11 -2.8112 -2.8112 1.42 1.42
12 28.58 18.9277 1.42 0.965
13 20.754 11.421 1.53 1.101
14 2.6868 20.4033 1.53 1.42
15 28.58 18.9277 1.42 0.965
16 20.754 11.421 1.53 1.101
17 2.6868 20.4033 1.53 1.42
18 4.6189 55.327 1.101 1.42
19 4.6189 55.327 1.101 1.42
20 18.103 18.103 1.101 1.101
21 4.6189 55.327 1.101 1.42
22 4.6189 55.327 1.101 1.42
23 0 0 1.42 1.42

Dihedral Coeffs # class2

1 0 0 0.0514 0 -0.143 0
2 0 0 0.0514 0 -0.143 0
3 0 0 0.0514 0 -0.143 0
4 -0.1432 0 0.0617 0 -0.1083 0
5 0 0 0.0316 0 -0.1681 0
6 0 0 0.0316 0 -0.1681 0
7 0 0 0.0316 0 -0.1681 0
8 0.7137 0 0.266 0 -0.2545 0
9 0.7137 0 0.266 0 -0.2545 0
10 -0.182 0 -0.1084 0 -0.7047 0
11 -0.1435 0 0.253 0 -0.0905 0
12 0.7137 0 0.266 0 -0.2545 0
13 -0.182 0 -0.1084 0 -0.7047 0
14 0.7137 0 0.266 0 -0.2545 0
15 -0.1435 0 0.253 0 -0.0905 0
16 -0.182 0 -0.1084 0 -0.7047 0
17 -0.1432 0 0.0617 0 -0.1083 0
18 0 0 0.0316 0 -0.1681 0
19 -0.182 0 -0.1084 0 -0.7047 0
20 0.7137 0 0.266 0 -0.2545 0
21 -0.1435 0 0.253 0 -0.0905 0
22 -0.1432 0 0.0617 0 -0.1083 0
23 0 0 0.0316 0 -0.1681 0
24 0.7137 0 0.266 0 -0.2545 0
25 -0.1435 0 0.253 0 -0.0905 0
26 -0.5203 0 -0.3028 0 -0.345 0
27 -0.5203 0 -0.3028 0 -0.345 0
28 -0.6732 0 -0.4778 0 -0.167 0
29 0.1863 0 -0.4338 0 -0.2121 0
30 -0.6732 0 -0.4778 0 -0.167 0
31 -0.1435 0 0.253 0 -0.0905 0
32 -0.6732 0 -0.4778 0 -0.167 0
33 0.1863 0 -0.4338 0 -0.2121 0
34 -0.182 0 -0.1084 0 -0.7047 0
35 -0.1435 0 0.253 0 -0.0905 0
36 -0.5203 0 -0.3028 0 -0.345 0
37 0.5302 0 0 0 -0.3966 0
38 0.5302 0 0 0 -0.3966 0
39 0 0 0 0 0.13 0

AngleAngleTorsion Coeffs

1 -22.045 112.67 112.67
2 -22.045 112.67 112.67
3 -22.045 112.67 112.67
4 -12.564 110.77 110.77
5 -16.164 112.67 110.77
6 -16.164 112.67 110.77
7 -16.164 112.67 110.77
8 -29.042 112.67 111.27
9 -29.042 112.67 111.27
10 -14.0484 111.27 111.27
11 -20.2006 110.77 111.27
12 -29.042 112.67 111.27
13 -14.0484 111.27 111.27
14 -29.042 112.67 111.27
15 -20.2006 110.77 111.27
16 -14.0484 111.27 111.27
17 -12.564 110.77 110.77
18 -16.164 112.67 110.77
19 -14.0484 111.27 111.27
20 -29.042 112.67 111.27
21 -20.2006 110.77 111.27
22 -12.564 110.77 110.77
23 -16.164 112.67 110.77
24 -29.042 112.67 111.27
25 -20.2006 110.77 111.27
26 -19.0059 111.27 104.5
27 -19.0059 111.27 104.5
28 -12.1038 111.27 105.8
29 -10.5093 108.728 105.8
30 -12.1038 111.27 105.8
31 -20.2006 110.77 111.27
32 -12.1038 111.27 105.8
33 -10.5093 108.728 105.8
34 -14.0484 111.27 111.27
35 -20.2006 110.77 111.27
36 -19.0059 111.27 104.5
37 -16.4438 108.728 104.5
38 -16.4438 108.728 104.5
39 0 109.5 104.5

EndBondTorsion Coeffs

1 -0.0732 0 0 -0.0732 0 0 1.53 1.53
2 -0.0732 0 0 -0.0732 0 0 1.53 1.53
3 -0.0732 0 0 -0.0732 0 0 1.53 1.53
4 0.213 0.312 0.0777 0.213 0.312 0.0777 1.101 1.101
5 0.2486 0.2422 -0.0925 0.0814 0.0591 0.2219 1.53 1.101
6 0.2486 0.2422 -0.0925 0.0814 0.0591 0.2219 1.53 1.101
7 0.2486 0.2422 -0.0925 0.0814 0.0591 0.2219 1.53 1.101
8 -0.319 0.4411 -0.7174 1.1538 0.8409 -0.9138 1.53 1.42
9 -0.319 0.4411 -0.7174 1.1538 0.8409 -0.9138 1.53 1.42
10 1.0165 0.7553 -0.4609 1.0165 0.7553 -0.4609 1.42 1.42
11 0.9681 0.9551 0.0436 0.5903 0.6669 0.8584 1.101 1.42
12 -0.319 0.4411 -0.7174 1.1538 0.8409 -0.9138 1.53 1.42
13 1.0165 0.7553 -0.4609 1.0165 0.7553 -0.4609 1.42 1.42
14 -0.319 0.4411 -0.7174 1.1538 0.8409 -0.9138 1.53 1.42
15 0.9681 0.9551 0.0436 0.5903 0.6669 0.8584 1.101 1.42
16 1.0165 0.7553 -0.4609 1.0165 0.7553 -0.4609 1.42 1.42
17 0.213 0.312 0.0777 0.213 0.312 0.0777 1.101 1.101
18 0.2486 0.2422 -0.0925 0.0814 0.0591 0.2219 1.53 1.101
19 1.0165 0.7553 -0.4609 1.0165 0.7553 -0.4609 1.42 1.42
20 -0.319 0.4411 -0.7174 1.1538 0.8409 -0.9138 1.53 1.42
21 0.9681 0.9551 0.0436 0.5903 0.6669 0.8584 1.101 1.42
22 0.213 0.312 0.0777 0.213 0.312 0.0777 1.101 1.101
23 0.2486 0.2422 -0.0925 0.0814 0.0591 0.2219 1.53 1.101
24 -0.319 0.4411 -0.7174 1.1538 0.8409 -0.9138 1.53 1.42
25 0.9681 0.9551 0.0436 0.5903 0.6669 0.8584 1.101 1.42
26 -0.2456 1.0517 -0.7795 0.4741 1.2635 0.5576 1.53 1.42
27 -0.2456 1.0517 -0.7795 0.4741 1.2635 0.5576 1.53 1.42
28 -0.58 0.9004 0 0 0.5343 0.9025 1.53 0.965
29 -1.7554 1.3145 0.2263 0.2493 0.6803 0 1.101 0.965
30 -0.58 0.9004 0 0 0.5343 0.9025 1.53 0.965
31 0.9681 0.9551 0.0436 0.5903 0.6669 0.8584 1.101 1.42
32 -0.58 0.9004 0 0 0.5343 0.9025 1.53 0.965
33 -1.7554 1.3145 0.2263 0.2493 0.6803 0 1.101 0.965
34 1.0165 0.7553 -0.4609 1.0165 0.7553 -0.4609 1.42 1.42
35 0.9681 0.9551 0.0436 0.5903 0.6669 0.8584 1.101 1.42
36 -0.2456 1.0517 -0.7795 0.4741 1.2635 0.5576 1.53 1.42
37 -0.6054 1.3339 0.9648 -0.162 0.1564 -1.1408 1.101 1.42
38 -0.6054 1.3339 0.9648 -0.162 0.1564 -1.1408 1.101 1.42
39 0 0 0 0 0 0 1.42 1.42

MiddleBondTorsion Coeffs

1 -17.787 -7.1877 0 1.53
2 -17.787 -7.1877 0 1.53
3 -17.787 -7.1877 0 1.53
4 -14.261 -0.5322 -0.4864 1.53
5 -14.879 -3.6581 -0.3138 1.53
6 -14.879 -3.6581 -0.3138 1.53
7 -14.879 -3.6581 -0.3138 1.53
8 -21.8842 -7.6764 -0.6868 1.53
9 -21.8842 -7.6764 -0.6868 1.53
10 -17.2585 -3.6157 -0.8364 1.53
11 -16.7975 -1.2296 -0.275 1.53
12 -21.8842 -7.6764 -0.6868 1.53
13 -17.2585 -3.6157 -0.8364 1.53
14 -21.8842 -7.6764 -0.6868 1.53
15 -16.7975 -1.2296 -0.275 1.53
16 -17.2585 -3.6157 -0.8364 1.53
17 -14.261 -0.5322 -0.4864 1.53
18 -14.879 -3.6581 -0.3138 1.53
19 -17.2585 -3.6157 -0.8364 1.53
20 -21.8842 -7.6764 -0.6868 1.53
21 -16.7975 -1.2296 -0.275 1.53
22 -14.261 -0.5322 -0.4864 1.53
23 -14.879 -3.6581 -0.3138 1.53
24 -21.8842 -7.6764 -0.6868 1.53
25 -16.7975 -1.2296 -0.275 1.53
26 -5.9288 -2.7007 -0.3175 1.42
27 -5.9288 -2.7007 -0.3175 1.42
28 1.2472 0 0.7485 1.42
29 0 0.9241 -0.5889 1.42
30 1.2472 0 0.7485 1.42
31 -16.7975 -1.2296 -0.275 1.53
32 1.2472 0 0.7485 1.42
33 0 0.9241 -0.5889 1.42
34 -17.2585 -3.6157 -0.8364 1.53
35 -16.7975 -1.2296 -0.275 1.53
36 -5.9288 -2.7007 -0.3175 1.42
37 -6.8007 -4.6546 -1.4101 1.42
38 -6.8007 -4.6546 -1.4101 1.42
39 0 0 0 1.42

BondBond13 Coeffs

1 0 1.53 1.53
2 0 1.53 1.53
3 0 1.53 1.53
4 0 1.101 1.101
5 0 1.53 1.101
6 0 1.53 1.101
7 0 1.53 1.101
8 0 1.53 1.42
9 0 1.53 1.42
10 0 1.42 1.42
11 0 1.101 1.42
12 0 1.53 1.42
13 0 1.42 1.42
14 0 1.53 1.42
15 0 1.101 1.42
16 0 1.42 1.42
17 0 1.101 1.101
18 0 1.53 1.101
19 0 1.42 1.42
20 0 1.53 1.42
21 0 1.101 1.42
22 0 1.101 1.101
23 0 1.53 1.101
24 0 1.53 1.42
25 0 1.101 1.42
26 0 1.53 1.42
27 0 1.53 1.42
28 0 1.53 0.965
29 0 1.101 0.965
30 0 1.53 0.965
31 0 1.101 1.42
32 0 1.53 0.965
33 0 1.101 0.965
34 0 1.42 1.42
35 0 1.101 1.42
36 0 1.53 1.42
37 0 1.101 1.42
38 0 1.101 1.42
39 0 1.42 1.42

AngleTorsion Coeffs

1 0.3886 -0.3139 0.1389 0.3886 -0.3139 0.1389 112.67 112.67
2 0.3886 -0.3139 0.1389 0.3886 -0.3139 0.1389 112.67 112.67
3 0.3886 -0.3139 0.1389 0.3886 -0.3139 0.1389 112.67 112.67
4 -0.8085 0.5569 -0.2466 -0.8085 0.5569 -0.2466 110.77 110.77
5 -0.2454 0 -0.1136 0.3113 0.4516 -0.1988 112.67 110.77
6 -0.2454 0 -0.1136 0.3113 0.4516 -0.1988 112.67 110.77
7 -0.2454 0 -0.1136 0.3113 0.4516 -0.1988 112.67 110.77
8 0.5623 -0.3041 -0.4015 0.9672 -0.7566 -1.2331 112.67 111.27
9 0.5623 -0.3041 -0.4015 0.9672 -0.7566 -1.2331 112.67 111.27
10 0.5511 0.9737 -0.6673 0.5511 0.9737 -0.6673 111.27 111.27
11 2.3668 2.492 -1.0122 -0.1892 0.4918 0.7273 110.77 111.27
12 0.5623 -0.3041 -0.4015 0.9672 -0.7566 -1.2331 112.67 111.27
13 0.5511 0.9737 -0.6673 0.5511 0.9737 -0.6673 111.27 111.27
14 0.5623 -0.3041 -0.4015 0.9672 -0.7566 -1.2331 112.67 111.27
15 2.3668 2.492 -1.0122 -0.1892 0.4918 0.7273 110.77 111.27
16 0.5511 0.9737 -0.6673 0.5511 0.9737 -0.6673 111.27 111.27
17 -0.8085 0.5569 -0.2466 -0.8085 0.5569 -0.2466 110.77 110.77
18 -0.2454 0 -0.1136 0.3113 0.4516 -0.1988 112.67 110.77
19 0.5511 0.9737 -0.6673 0.5511 0.9737 -0.6673 111.27 111.27
20 0.5623 -0.3041 -0.4015 0.9672 -0.7566 -1.2331 112.67 111.27
21 2.3668 2.492 -1.0122 -0.1892 0.4918 0.7273 110.77 111.27
22 -0.8085 0.5569 -0.2466 -0.8085 0.5569 -0.2466 110.77 110.77
23 -0.2454 0 -0.1136 0.3113 0.4516 -0.1988 112.67 110.77
24 0.5623 -0.3041 -0.4015 0.9672 -0.7566 -1.2331 112.67 111.27
25 2.3668 2.492 -1.0122 -0.1892 0.4918 0.7273 110.77 111.27
26 -2.7466 1.4877 -0.8955 0.5676 0.945 0.0703 111.27 104.5
27 -2.7466 1.4877 -0.8955 0.5676 0.945 0.0703 111.27 104.5
28 -3.5903 2.5225 0.4888 0.8726 -0.3577 0.3888 111.27 105.8
29 -3.406 1.6396 0.0737 0 -0.281 -0.5944 108.728 105.8
30 -3.5903 2.5225 0.4888 0.8726 -0.3577 0.3888 111.27 105.8
31 2.3668 2.492 -1.0122 -0.1892 0.4918 0.7273 110.77 111.27
32 -3.5903 2.5225 0.4888 0.8726 -0.3577 0.3888 111.27 105.8
33 -3.406 1.6396 0.0737 0 -0.281 -0.5944 108.728 105.8
34 0.5511 0.9737 -0.6673 0.5511 0.9737 -0.6673 111.27 111.27
35 2.3668 2.492 -1.0122 -0.1892 0.4918 0.7273 110.77 111.27
36 -2.7466 1.4877 -0.8955 0.5676 0.945 0.0703 111.27 104.5
37 -1.8234 1.6393 0.5144 -0.7777 0.434 -0.6653 108.728 104.5
38 -1.8234 1.6393 0.5144 -0.7777 0.434 -0.6653 108.728 104.5
39 0 0 0 0 0 0 109.5 104.5

Improper Coeffs # class2

1 0 0
2 0 0
3 0 0
4 0 0
5 0 0
6 0 0
7 0 0
8 0 0
9 0 0
10 0 0
11 0 0
12 0 0
13 0 0
14 0 0
15 0 0
16 0 0
17 0 0

AngleAngle Coeffs

1 -1.3199 -1.3199 0.1184 112.67 110.77 110.77
2 -0.833 -0.833 -3.5744 112.67 111.27 111.27
3 -0.833 -0.833 -3.5744 112.67 111.27 111.27
4 -1.3199 -1.3199 0.1184 112.67 110.77 110.77
5 -0.833 -0.833 -3.5744 112.67 111.27 111.27
6 -1.3199 -1.3199 0.1184 112.67 110.77 110.77
7 -0.833 -0.833 -3.5744 112.67 111.27 111.27
8 3.9177 2.5926 0.1689 110.77 111.27 108.728
9 3.9177 2.5926 0.1689 110.77 111.27 108.728
10 0.2738 -0.4825 0.2738 110.77 110.77 107.66
11 3.9177 2.5926 0.1689 110.77 111.27 108.728
12 3.9177 2.5926 0.1689 110.77 111.27 108.728
13 0 0 0 111.27 109.5 111.27
14 3.9177 2.5926 0.1689 110.77 111.27 108.728
15 3.9177 2.5926 0.1689 110.77 111.27 108.728
16 2.4259 2.4259 2.1283 107.66 108.728 108.728
17 0 0 0 108.728 109.5 108.728

Atoms # full

1 1 3 0.243 0.5464044902591945 -0.17819982226551812 0.25108080735815547 0 0 0
2 1 4 0.063 1.5917129555824037 0.3362062287184049 0.3322601814703729 0 0 0
22 2 4 0.063 2.28976519069401 2.3043474184860315 1.9771020190297128 0 0 0
38 1 5 0.424 -0.18487560882042198 2.9102344728458593 5.897087964415777 0 0 0
39 1 5 0.424 -0.6511214522199986 1.8180097928379357 1.4694200715707144 0 0 0
43 1 3 0.243 0.11690853135011237 0.15281627298202505 5.505155463435672 0 0 0
44 1 4 0.063 -0.9528164289465582 -0.08408850029579895 5.785531305979363 0 0 0
45 1 1 0.213 0.08292935118629696 1.4193328774122 4.602827856730756 0 0 0
46 1 4 0.063 1.0601822764847153 1.8272215995167524 4.581267737728463 0 0 0
47 1 1 0.213 -0.32987107566897844 1.0712451145988102 3.1786954018809537 0 0 0
48 1 4 0.063 -1.4100184242808962 0.7317810137015432 3.362053430595182 0 0 0
49 1 1 0.213 0.42921745411799517 -0.16551254236509916 2.7309952644953124 0 0 0
50 1 4 0.063 1.4805589407528617 -0.017139984635289096 2.697231417165354 0 0 0
51 1 1 0.213 0.31259760602503217 -1.329056098124787 3.823920153312039 0 0 0
52 1 4 0.063 -0.7287277819092599 -1.62518654369212 4.035123202618071 0 0 0
56 1 7 -0.68 -0.7351632538855046 2.478751247654106 5.146082168074981 0 0 0
57 1 7 -0.68 -0.241929156003458 2.2008750286513274 2.3041548803056138 0 0 0
58 1 6 -0.5091 -0.043400126900076774 -0.6005636307901909 1.4568578455877295 0 0 0
59 1 6 -0.5091 0.9217212102574832 -0.9399407454909312 5.002076137089817 0 0 0
66 2 4 0.063 2.2235448013491483 4.905775540591407 5.613580658951572 0 0 0
188 6 4 0.063 -2.6988006476692687 3.9626167402438464 2.811990246333201 1 0 0
192 6 4 0.063 -2.464865615850747 3.1456117766626246 0.2865614290955187 1 0 0
196 6 4 0.063 -2.8416242283726842 5.555023680458594 1.2645944047860556 1 0 0
236 6 4 0.063 -2.6804858336148727 4.016199820698117 5.058858544126918 1 0 0
289 7 5 0.424 0.06599739601914134 3.817104029891876 2.8045766718619403 0 0 0
305 7 2 0.2503 0.24490550760261165 5.553039150645465 3.6989897692621176 0 0 0
307 7 4 0.063 0.13804617108103834 5.075551655131038 4.69542535659218 0 0 0
312 7 7 -0.68 -0.3892739610140623 4.676170776451851 2.666059824571512 0 0 0
332 7 5 0.424 -0.2876644434501694 5.391660513862225 0.751805046550375 0 0 0
70 2 4 0.063 2.858380720445318 2.471313292417517 6.366942110942476 0 0 0
240 6 4 0.063 -2.4569900928671955 1.2193748184987605 6.309152529773146 1 0 0
306 7 4 0.063 1.298647244557742 5.623096097930819 3.4939437276599308 0 0 0
747 18 7 -0.68 -2.4963976245247936 -1.9260255070905803 4.971722882775576 1 1 0
81 1 5 0.424 0.5169733899254609 -2.0352202747857295 6.4912151364638415 0 0 0
16 1 6 -0.5091 0.6684271394265169 0.5837001527452665 6.768453379976415 0 0 0
1022 7 7 -0.68 0.2187374677164664 5.555312270862099 -0.10911295608780884 0 0 1
534 14 4 0.063 3.156577544408128 -1.389546926789936 1.3066617811198638 0 1 0
76 2 6 -0.5091 3.2966880642086487 3.1329845288477083 4.044340165160455 0 0 0
35 2 6 -0.5091 3.2913200366407454 4.746301104874317 2.389294262511606 0 0 0
65 2 1 0.213 3.3337966243148935 5.0277660409366405 5.665341243270954 0 0 0
21 2 1 0.213 3.3985392582703513 2.3971778388513636 1.8414470424427638 0 0 0
32 2 7 -0.68 4.024920835194 1.1719734000375324 2.1608202496074584 0 0 0
42 2 5 0.424 4.765624873563463 -0.4033756821424994 5.261902959343653 0 0 0
78 2 7 -0.68 4.395380128083294 0.47386323846037115 5.06459646865145 0 0 0
69 2 1 0.213 3.9407759917793 2.593564116169711 6.346455970797402 0 0 0
19 2 3 0.243 3.818539235103403 3.486665038936966 2.8074962004783846 0 0 0
20 2 4 0.063 4.9406179219476964 3.5695394048005546 2.8374755996838092 0 0 0
23 2 1 0.213 3.828410241190179 2.8071209624011546 0.44521524131626167 0 0 0
24 2 4 0.063 4.923254582944491 2.8119139269185576 0.4969177874474613 0 0 0
27 2 1 0.213 3.698450214864473 5.1573527730834385 1.1110312164179372 0 0 0
28 2 4 0.063 4.8308721654091356 5.082630181356263 1.1386164812972877 0 0 0
67 2 1 0.213 3.975937634097983 3.657619742905978 5.183184385200555 0 0 0
68 2 4 0.063 4.987337040136018 4.006094594644715 4.851850270314643 0 0 0
71 2 2 0.2503 4.606560271901872 1.2145014010849406 6.231843096442457 0 0 0
83 2 5 0.424 3.9978004224203083 1.0570894015272865 3.112677106044632 0 0 0
85 3 3 0.243 8.067439854744272 -0.5282438133016158 0.5483411466859439 0 0 0
86 3 4 0.063 9.120879118567835 -0.31579252578544703 0.7971578158249207 0 0 0
105 4 1 0.213 11.009407880196138 2.5460485691144656 1.9719236924369405 0 0 0
106 4 4 0.063 9.950912612978396 2.2540102977390584 1.998899491553018 0 0 0
122 3 5 0.424 7.33571633463138 2.965181135245416 5.9672682145072695 0 0 0
123 3 5 0.424 6.693366739056797 1.4906883992818476 1.641105513662279 0 0 0
127 3 3 0.243 7.78319462244121 0.10635277630578166 5.744398322091954 0 0 0
128 3 4 0.063 6.805270704419158 -0.30604065897893595 5.810083699268498 0 0 0
129 3 1 0.213 7.7485294953457995 1.3901900251928967 4.784299389209762 0 0 0
130 3 4 0.063 8.817268472134781 1.7106443004181289 4.803015930025048 0 0 0
131 3 1 0.213 7.212565033562797 0.940885414279482 3.397902684148451 0 0 0
132 3 4 0.063 6.270741490870636 0.5434252836027111 3.6109893032032327 0 0 0
133 3 1 0.213 7.980090198561173 -0.30873948001157636 2.9156784461094616 0 0 0
134 3 4 0.063 9.068241945560573 -0.06620426461825435 2.7712180372333135 0 0 0
135 3 1 0.213 7.967898799852456 -1.4214307306987424 4.018005603061286 0 0 0
136 3 4 0.063 6.918809228290085 -1.752153808607789 4.310274932679783 0 0 0
140 3 7 -0.68 7.0089267644826965 2.5722678823879948 5.140210156760451 0 0 0
141 3 7 -0.68 7.077245758557664 1.9625183170967384 2.4317865287127733 0 0 0
142 3 6 -0.5091 7.372972861606886 -0.84754047440844 1.7155526319044017 0 0 0
143 3 6 -0.5091 8.660228572979115 -0.9190744332280585 5.181441051768576 0 0 0
150 4 4 0.063 9.707780937244387 5.2308304148565705 5.870759212603121 0 0 0
160 4 6 -0.5091 10.587613465499587 3.511691744611464 4.178497441605947 0 0 0
373 9 5 0.424 6.990296228820959 3.834260151126615 2.8400827497916503 0 0 0
389 9 2 0.2503 7.379711694171554 5.567350269650617 3.57362383343497 0 0 0
391 9 4 0.063 7.467270692805842 5.082136877132324 4.550660767256732 0 0 0
396 9 7 -0.68 6.6993653826542126 4.737537181644664 2.586330826248673 0 0 0
416 9 5 0.424 7.065345747257231 5.191502865006756 0.7009308174495372 0 0 0
533 14 2 0.2503 4.144046454382138 -1.4701212157739159 1.0062360936124364 0 1 0
535 14 4 0.063 4.732872277941736 -0.943240549494414 1.7960513679853563 0 1 0
149 4 1 0.213 10.805255198258017 5.343256804026274 5.872500500247342 0 0 0
153 4 1 0.213 10.916192792818363 2.883903963496813 6.532667267152368 0 0 0
119 4 6 -0.5091 10.351882687158502 4.855611302959705 2.4798202248808625 0 0 0
618 16 4 0.063 10.887719526593946 -1.0908550517647488 1.5142268307061553 0 1 0
103 4 3 0.243 11.140278230836255 3.7483654599022005 2.9419484632543105 0 0 0
72 2 4 0.063 5.720008787839014 1.3721313854285349 6.405947258765626 0 0 0
390 9 4 0.063 8.400144637655398 5.813733507201925 3.2200211147439077 0 0 0
154 4 4 0.063 9.867069136504501 2.679342374858191 6.541361615816261 0 0 0
151 4 1 0.213 11.182398040331135 3.9276825785717575 5.384603319620851 0 0 0
109 4 1 0.213 10.757714525164019 4.332381071169229 0.19395200736190837 0 0 0
111 4 1 0.213 10.931920778372112 5.412922670940723 1.3033138712068286 0 0 0
1344 14 5 0.424 4.046282352161705 0.03389750017766735 -0.10183788962284425 0 1 1
162 4 7 -0.68 11.188464297497642 0.798515116163049 5.019442206967086 0 0 0
25 2 1 0.213 3.3554865855905494 4.2108597236758145 -0.032339759947654936 0 0 0
107 4 1 0.213 11.285954345560848 2.9657350165164686 0.5370977531251669 0 0 0
40 2 5 0.424 3.721491979899433 5.834247436600417 3.8642217303408413 0 0 0
165 3 5 0.424 8.589933851230096 -1.9303625525134123 6.829985062074546 0 0 0
110 4 4 0.063 9.669823067575564 4.267096263003407 0.020380803731288644 0 0 0
857 3 6 -0.5091 7.347391738225076 0.6059237947641645 0.026514429005091655 0 0 1
703 18 4 0.063 19.64513064040667 -0.7130136254634554 1.779782969630192 0 1 0
167 4 5 0.424 11.519953609811989 1.321590822672555 3.3345662374084757 0 0 0
116 4 7 -0.68 11.81366186979755 1.4301288151445064 2.423042187117846 0 0 0
155 4 2 0.2503 11.444490973045037 1.424284450114547 6.324236731090233 0 0 0
617 16 2 0.2503 11.921468895469461 -1.23289076193024 0.9738693692477871 0 1 0
126 4 5 0.424 11.557855503433583 -0.0905825935866762 5.051828873170985 0 0 0
619 16 4 0.063 12.536518489208982 -0.5077987200033414 1.4935280950511731 0 1 0
195 6 1 0.213 18.621293493735024 5.404469485331084 1.0147078913950007 0 0 0
191 6 1 0.213 19.016875314173078 3.0313585948822794 0.2958527795397081 0 0 0
239 6 2 0.2503 19.012323839165823 1.3747348089101892 6.189767413903562 0 0 0
200 6 7 -0.68 19.355457394834573 1.4888296528037777 2.1843952292943154 0 0 0
210 6 5 0.424 19.189835450257696 -0.17553734089672401 5.13994946628787 0 0 0
235 6 1 0.213 18.742499718788103 3.8678745259746963 5.211681105351011 0 0 0
246 6 7 -0.68 18.841937917176715 0.7463045273690412 4.917285045704221 0 0 0
701 18 2 0.2503 19.259606053118723 -1.2979784494778825 0.9779373838135839 0 1 0
251 6 5 0.424 19.081136974966498 1.5412173972997634 3.1345892531800694 0 0 0
187 6 3 0.243 18.79286732869064 3.7839447331858684 2.732377159368714 0 0 0
104 4 4 0.063 12.186332506321353 4.093578919861344 2.9901853382989088 0 0 0
108 4 4 0.063 12.368162726863957 3.1260411070401224 0.5064867008493705 0 0 0
112 4 4 0.063 12.06306759765471 5.583605144461757 1.4251516056113651 0 0 0
152 4 4 0.063 12.347158649842214 3.984390156838238 5.2739631174154 0 0 0
169 5 3 0.243 15.553967377975079 -0.36518208620751214 0.4650091597796395 0 0 0
170 5 4 0.063 16.594766039250644 0.10209191896788372 0.5647761335925799 0 0 0
189 6 1 0.213 18.579433884916618 2.616383318538217 1.7481982746068643 0 0 0
190 6 4 0.063 17.51756506757163 2.4368608569017978 1.698343518730684 0 0 0
203 6 6 -0.5091 18.082403344044344 4.926551779365776 2.2816074049653348 0 0 0
206 5 5 0.424 14.746039231269501 2.7039545083858956 6.316649770924563 0 0 0
207 5 5 0.424 14.845504471236177 1.872378267670877 1.7447819011658319 0 0 0
211 5 3 0.243 15.337876616794423 0.18538128931312903 5.86553141049089 0 0 0
212 5 4 0.063 14.258221264341136 -0.10030830191064322 5.982507286318072 0 0 0
213 5 1 0.213 15.392674128340603 1.4003011093994737 4.98478154381461 0 0 0
214 5 4 0.063 16.435751525184116 1.7315048063637453 5.0221929306363045 0 0 0
215 5 1 0.213 15.119562806260538 1.092348407288454 3.473237023002431 0 0 0
216 5 4 0.063 14.029794465122803 0.7785290007331711 3.4531672786304886 0 0 0
217 5 1 0.213 15.794555516662234 -0.239003179097099 2.9988019201043628 0 0 0
218 5 4 0.063 16.89328665384599 -0.13928937219820492 2.779261525492224 0 0 0
219 5 1 0.213 15.823271324963331 -1.3867367801455905 4.046676443799522 0 0 0
220 5 4 0.063 14.744107691917664 -1.6317034577845781 4.143459267420139 0 0 0
224 5 7 -0.68 14.457525513822679 2.4447865007979406 5.412634891218462 0 0 0
225 5 7 -0.68 15.327445249174103 2.121712755266361 2.5309033189278654 0 0 0
226 5 6 -0.5091 15.130033796697044 -0.8166225456058802 1.7503358980980483 0 0 0
227 5 6 -0.5091 16.156938678387526 -0.9271498769820259 5.411210272800731 0 0 0
233 6 1 0.213 18.222353320223625 5.294168618135892 5.624642067850799 0 0 0
234 6 4 0.063 17.087029545314124 5.280460491707665 5.642976777278944 0 0 0
244 6 6 -0.5091 18.1511229428554 3.481935228817245 3.969930888038908 0 0 0
457 11 5 0.424 14.616546684568787 3.7999304619899474 2.743453427386677 0 0 0
473 11 2 0.2503 15.096504878884177 5.4261042680711045 3.6883343532695654 0 0 0
475 11 4 0.063 15.118202780133418 4.7699745944393515 4.554496465032477 0 0 0
480 11 7 -0.68 14.301840760025646 4.71014389413433 2.7147768236629446 0 0 0
500 11 5 0.424 14.548769657514468 5.206023908088457 0.7369787235662418 0 0 0
237 6 1 0.213 18.475018113506955 2.7782963569654218 6.302752928895995 0 0 0
702 18 4 0.063 18.16200237440838 -1.491872646736205 1.1897308618645668 0 1 0
474 11 4 0.063 16.09182085570891 5.6503437110636145 3.33376617265737 0 0 0
208 6 5 0.424 18.45393247682871 5.784525731200604 3.808754364835327 0 0 0
238 6 4 0.063 17.351668620426807 2.719495384943528 6.332551870603518 0 0 0
156 4 4 0.063 12.460651336688585 1.3974431592271195 6.568178850851708 0 0 0
663 16 7 -0.68 12.118263347446737 -1.7028468968924035 4.897438295933838 0 1 0
941 5 6 -0.5091 14.671885805793815 0.6597008267912372 -0.023418640229023208 0 0 1
304 7 4 0.063 -1.6429666126515179 6.558902728917726 3.9772619717336966 0 0 0
30 2 4 0.063 2.207842456886164 6.68216268808999 1.393304887817329 0 0 0
253 7 3 0.243 -0.5419026609592916 7.830493374163064 0.4018762272715619 0 0 0
254 7 4 0.063 0.560901909276764 8.005600974568415 0.41712210551183293 0 0 0
274 8 4 0.063 1.3039857427613564 10.49361015188341 1.7934251732646058 0 0 0
287 8 6 -0.5091 2.341556202546963 13.06266510535068 2.4748956075654083 0 0 0
290 7 5 0.424 -1.4047241832291057 10.751537100777401 6.170056843465222 0 0 0
291 7 5 0.424 -1.4676261062712381 9.995767132845208 1.4884869027332297 0 0 0
295 7 3 0.243 -0.8576691331927453 8.391780824135596 5.616795418069102 0 0 0
296 7 4 0.063 -1.8934631336979746 8.077338231126728 5.854790827186916 0 0 0
297 7 1 0.213 -0.7710892619661964 9.582623749584098 4.679623808314286 0 0 0
298 7 4 0.063 0.1933185693316828 9.988479290205005 4.607420017731094 0 0 0
299 7 1 0.213 -1.16888345332537 9.219668009224767 3.2164131153629896 0 0 0
300 7 4 0.063 -2.1731024020847896 8.769170323903085 3.3400799681613265 0 0 0
301 7 1 0.213 -0.4169887672512296 7.920392415162889 2.817907383462926 0 0 0
302 7 4 0.063 0.6979343864452092 8.067157228683218 2.6561477253037897 0 0 0
303 7 1 0.213 -0.5715599825367939 6.856831386301348 3.905497059807419 0 0 0
308 7 7 -0.68 -1.6027643857637417 10.64147021820701 5.169612828706146 0 0 0
309 7 7 -0.68 -1.0740778354960834 10.364953789991878 2.329912584170975 0 0 0
310 7 6 -0.5091 -1.0595176243148066 7.383703774662948 1.6384983822095074 0 0 0
311 7 6 -0.5091 -0.11500552268166331 7.29606417845007 5.175108254718552 0 0 0
317 8 1 0.213 2.515680072438797 13.26976119338475 5.721364548702746 0 0 0
318 8 4 0.063 1.459017764699758 13.229790734179108 5.5818941730006095 0 0 0
328 8 6 -0.5091 2.157798497471706 11.50533800980876 4.148885747305481 0 0 0
440 12 4 0.063 -3.9924016617992533 11.932327433994073 3.002218198965754 1 0 0
444 12 4 0.063 -3.8460608772953293 11.122059930754558 0.4079361596869012 1 0 0
448 12 4 0.063 -4.064936885752182 13.678621847419933 1.2539747622534054 1 0 0
488 12 4 0.063 -3.8263719430896304 11.998276930157997 5.059306314354079 1 0 0
541 13 5 0.424 -1.5052965367702604 12.112342319583815 2.781053112450261 0 0 0
557 13 2 0.2503 -1.159624399566312 13.837664511102028 3.5250548869183973 0 0 0
559 13 4 0.063 -1.1814422792787502 13.264854025994184 4.489518560758481 0 0 0
564 13 7 -0.68 -1.7057349551503524 13.059885771281536 2.4636034147550077 0 0 0
584 13 5 0.424 -1.0796024073700679 13.496280969239146 0.7060746708015141 0 0 0
273 8 1 0.213 2.4116896215730836 10.667974168017464 1.8127290715946325 0 0 0
321 8 1 0.213 2.49241135786502 10.868121669644218 6.316219381838718 0 0 0
322 8 4 0.063 1.3957084861860771 10.897513944275177 6.239329538510554 0 0 0
492 12 4 0.063 -3.5499411923106616 9.488817952404748 6.658837523278074 1 0 0
271 8 3 0.243 2.819369313899114 11.77916355351057 2.884177518249079 0 0 0
279 8 1 0.213 2.857299952568848 13.497432298235813 1.2531491486717161 0 0 0
277 8 1 0.213 2.4711697442718172 12.497868321886777 0.06108053115308967 0 0 0
278 8 4 0.063 1.3982849897179275 12.446594828658862 0.054512790047039905 0 0 0
292 8 5 0.424 2.6964981460650588 13.996253228632701 3.9571469099122316 0 0 0
335 8 5 0.424 2.8937140288055696 9.317516659982932 3.143414227617539 0 0 0
558 13 4 0.063 -0.08132593878854433 14.057487511956916 3.3615460462624545 0 0 0
333 7 5 0.424 -0.2609396338529826 6.209066947276499 6.717496155451392 0 0 0
268 7 6 -0.5091 -0.13350704087282272 8.686517297050946 6.845394884781998 0 0 0
275 8 1 0.213 2.7614598312693914 11.025770430424382 0.35774133211554277 0 0 0
325 8 4 0.063 2.58883395811547 8.769082726888612 6.888406326249888 0 0 0
1025 7 6 -0.5091 -1.2695093235495207 9.014869347753304 0.05146751280351852 0 0 1
124 4 5 0.424 10.602696304245534 6.113742050863255 4.066783537659392 0 0 0
75 2 7 -0.68 3.8153218848000705 6.101427498967736 4.859564524018267 0 0 0
159 4 7 -0.68 11.128618391529157 6.379639579109453 4.899983179220671 0 0 0
330 8 7 -0.68 2.942253229788581 8.902647324566942 4.8780931799946625 0 0 0