LAMMPS data file via write_data, version 27 Jun 2024, timestep = 1000000, units = real

1512 atoms
7 atom types
1584 bonds
11 bond types
2952 angles
23 angle types
4752 dihedrals
39 dihedral types
1728 impropers
17 improper types

-2.734117329811289 19.855392529808206 xlo xhi
-2.1555611632562037 22.524234968253708 ylo yhi
-0.12656782332505223 20.967434049322613 zlo zhi
-2.833726526657924 0 0 xy xz yz

Atom Type Labels

1 c1
2 c2
3 coh
4 hc
5 ho
6 oc
7 oh

Bond Type Labels

1 c1-c1
2 c1-c2
3 c1-coh
4 c1-hc
5 c1-oc
6 c1-oh
7 c2-hc
8 c2-oh
9 coh-hc
10 coh-oc
11 ho-oh

Angle Type Labels

1 c1-c1-c1
2 c1-c1-c2
3 c1-c1-coh
4 c1-c1-hc
5 c1-c1-oc
6 c1-c1-oh
7 c1-c2-hc
8 c1-c2-oh
9 c1-coh-hc
10 c1-coh-oc
11 c1-oc-coh
12 c1-oh-ho
13 c2-c1-hc
14 c2-c1-oc
15 c2-oh-ho
16 coh-c1-hc
17 coh-c1-oh
18 hc-c1-oc
19 hc-c1-oh
20 hc-c2-hc
21 hc-c2-oh
22 hc-coh-oc
23 oc-coh-oc

Dihedral Type Labels

1 c1-c1-c1-c1
2 c1-c1-c1-c2
3 c1-c1-c1-coh
4 hc-c1-c1-hc
5 c1-c1-c1-hc
6 c2-c1-c1-hc
7 coh-c1-c1-hc
8 c1-c1-c1-oc
9 c2-c1-c1-oc
10 oc-c1-c1-oc
11 hc-c1-c1-oc
12 coh-c1-c1-oh
13 oc-c1-c1-oh
14 c1-c1-c1-oh
15 hc-c1-c1-oh
16 oh-c1-c1-oh
17 hc-c1-c2-hc
18 c1-c1-c2-hc
19 oc-c1-c2-oh
20 c1-c1-c2-oh
21 hc-c1-c2-oh
22 hc-c1-coh-hc
23 c1-c1-coh-hc
24 c1-c1-coh-oc
25 hc-c1-coh-oc
26 c2-c1-oc-coh
27 c1-c1-oc-coh
28 c1-c1-oh-ho
29 hc-c1-oh-ho
30 coh-c1-oh-ho
31 hc-c2-c1-oc
32 c1-c2-oh-ho
33 hc-c2-oh-ho
34 oc-coh-c1-oh
35 hc-coh-c1-oh
36 c1-coh-oc-c1
37 hc-c1-oc-coh
38 hc-coh-oc-c1
39 oc-coh-oc-c1

Improper Type Labels

1 c1-c1-c1-hc-nb!=3
2 c1-c1-c1-oc-nb!=3
3 c1-c1-c1-oh-nb!=3
4 c1-c1-c2-hc-nb!=3
5 c1-c1-c2-oc-nb!=3
6 c1-c1-coh-hc-nb!=3
7 c1-c1-coh-oh-nb!=3
8 c1-c1-hc-oc-nb!=3
9 c1-c1-hc-oh-nb!=3
10 c1-c2-hc-hc-nb!=3
11 c1-c2-hc-oh-nb!=3
12 c1-coh-hc-oc-nb!=3
13 c1-coh-oc-oc-nb!=3
14 c2-c1-hc-oc-nb!=3
15 coh-c1-hc-oh-nb!=3
16 hc-c2-hc-oh-nb!=3
17 hc-coh-oc-oc-nb!=3

Masses

1 12.01115
2 12.01115
3 12.01115
4 1.00797
5 1.00797
6 15.9994
7 15.9994

Pair Coeffs # lj/class2/coul/long

1 0.054 4.01
2 0.054 4.01
3 0.054 4.01
4 0.02 2.3
5 0.013 1.098
6 0.24 3.535
7 0.24 3.535

Bond Coeffs # class2

1 1.53 299.67 -501.77 679.81
2 1.53 299.67 -501.77 679.81
3 1.53 299.67 -501.77 679.81
4 1.101 345 -691.89 844.6
5 1.42 400.395 -835.195 1313.01
6 1.42 400.395 -835.195 1313.01
7 1.101 345 -691.89 844.6
8 1.42 400.395 -835.195 1313.01
9 1.101 345 -691.89 844.6
10 1.42 400.395 -835.195 1313.01
11 0.965 532.506 -1282.9 2004.77

Angle Coeffs # class2

1 112.67 39.516 -7.443 -9.5583
2 112.67 39.516 -7.443 -9.5583
3 112.67 39.516 -7.443 -9.5583
4 110.77 41.453 -10.604 5.129
5 111.27 54.5381 -8.3642 -13.0838
6 111.27 54.5381 -8.3642 -13.0838
7 110.77 41.453 -10.604 5.129
8 111.27 54.5381 -8.3642 -13.0838
9 110.77 41.453 -10.604 5.129
10 111.27 54.5381 -8.3642 -13.0838
11 104.5 35.7454 -10.0067 -6.2729
12 105.8 52.7061 -12.109 -9.8681
13 110.77 41.453 -10.604 5.129
14 111.27 54.5381 -8.3642 -13.0838
15 105.8 52.7061 -12.109 -9.8681
16 110.77 41.453 -10.604 5.129
17 111.27 54.5381 -8.3642 -13.0838
18 108.728 58.5446 -10.8088 -12.4006
19 108.728 58.5446 -10.8088 -12.4006
20 107.66 39.641 -12.921 -2.4318
21 108.728 58.5446 -10.8088 -12.4006
22 108.728 58.5446 -10.8088 -12.4006
23 109.5 70 0 0

BondBond Coeffs

1 0 1.53 1.53
2 0 1.53 1.53
3 0 1.53 1.53
4 3.3872 1.53 1.101
5 11.4318 1.53 1.42
6 11.4318 1.53 1.42
7 3.3872 1.53 1.101
8 11.4318 1.53 1.42
9 3.3872 1.53 1.101
10 11.4318 1.53 1.42
11 -7.1131 1.42 1.42
12 -9.6879 1.42 0.965
13 3.3872 1.53 1.101
14 11.4318 1.53 1.42
15 -9.6879 1.42 0.965
16 3.3872 1.53 1.101
17 11.4318 1.53 1.42
18 23.1979 1.101 1.42
19 23.1979 1.101 1.42
20 5.3316 1.101 1.101
21 23.1979 1.101 1.42
22 23.1979 1.101 1.42
23 0 1.42 1.42

BondAngle Coeffs

1 8.016 8.016 1.53 1.53
2 8.016 8.016 1.53 1.53
3 8.016 8.016 1.53 1.53
4 20.754 11.421 1.53 1.101
5 2.6868 20.4033 1.53 1.42
6 2.6868 20.4033 1.53 1.42
7 20.754 11.421 1.53 1.101
8 2.6868 20.4033 1.53 1.42
9 20.754 11.421 1.53 1.101
10 2.6868 20.4033 1.53 1.42
11 -2.8112 -2.8112 1.42 1.42
12 28.58 18.9277 1.42 0.965
13 20.754 11.421 1.53 1.101
14 2.6868 20.4033 1.53 1.42
15 28.58 18.9277 1.42 0.965
16 20.754 11.421 1.53 1.101
17 2.6868 20.4033 1.53 1.42
18 4.6189 55.327 1.101 1.42
19 4.6189 55.327 1.101 1.42
20 18.103 18.103 1.101 1.101
21 4.6189 55.327 1.101 1.42
22 4.6189 55.327 1.101 1.42
23 0 0 1.42 1.42

Dihedral Coeffs # class2

1 0 0 0.0514 0 -0.143 0
2 0 0 0.0514 0 -0.143 0
3 0 0 0.0514 0 -0.143 0
4 -0.1432 0 0.0617 0 -0.1083 0
5 0 0 0.0316 0 -0.1681 0
6 0 0 0.0316 0 -0.1681 0
7 0 0 0.0316 0 -0.1681 0
8 0.7137 0 0.266 0 -0.2545 0
9 0.7137 0 0.266 0 -0.2545 0
10 -0.182 0 -0.1084 0 -0.7047 0
11 -0.1435 0 0.253 0 -0.0905 0
12 0.7137 0 0.266 0 -0.2545 0
13 -0.182 0 -0.1084 0 -0.7047 0
14 0.7137 0 0.266 0 -0.2545 0
15 -0.1435 0 0.253 0 -0.0905 0
16 -0.182 0 -0.1084 0 -0.7047 0
17 -0.1432 0 0.0617 0 -0.1083 0
18 0 0 0.0316 0 -0.1681 0
19 -0.182 0 -0.1084 0 -0.7047 0
20 0.7137 0 0.266 0 -0.2545 0
21 -0.1435 0 0.253 0 -0.0905 0
22 -0.1432 0 0.0617 0 -0.1083 0
23 0 0 0.0316 0 -0.1681 0
24 0.7137 0 0.266 0 -0.2545 0
25 -0.1435 0 0.253 0 -0.0905 0
26 -0.5203 0 -0.3028 0 -0.345 0
27 -0.5203 0 -0.3028 0 -0.345 0
28 -0.6732 0 -0.4778 0 -0.167 0
29 0.1863 0 -0.4338 0 -0.2121 0
30 -0.6732 0 -0.4778 0 -0.167 0
31 -0.1435 0 0.253 0 -0.0905 0
32 -0.6732 0 -0.4778 0 -0.167 0
33 0.1863 0 -0.4338 0 -0.2121 0
34 -0.182 0 -0.1084 0 -0.7047 0
35 -0.1435 0 0.253 0 -0.0905 0
36 -0.5203 0 -0.3028 0 -0.345 0
37 0.5302 0 0 0 -0.3966 0
38 0.5302 0 0 0 -0.3966 0
39 0 0 0 0 0.13 0

AngleAngleTorsion Coeffs

1 -22.045 112.67 112.67
2 -22.045 112.67 112.67
3 -22.045 112.67 112.67
4 -12.564 110.77 110.77
5 -16.164 112.67 110.77
6 -16.164 112.67 110.77
7 -16.164 112.67 110.77
8 -29.042 112.67 111.27
9 -29.042 112.67 111.27
10 -14.0484 111.27 111.27
11 -20.2006 110.77 111.27
12 -29.042 112.67 111.27
13 -14.0484 111.27 111.27
14 -29.042 112.67 111.27
15 -20.2006 110.77 111.27
16 -14.0484 111.27 111.27
17 -12.564 110.77 110.77
18 -16.164 112.67 110.77
19 -14.0484 111.27 111.27
20 -29.042 112.67 111.27
21 -20.2006 110.77 111.27
22 -12.564 110.77 110.77
23 -16.164 112.67 110.77
24 -29.042 112.67 111.27
25 -20.2006 110.77 111.27
26 -19.0059 111.27 104.5
27 -19.0059 111.27 104.5
28 -12.1038 111.27 105.8
29 -10.5093 108.728 105.8
30 -12.1038 111.27 105.8
31 -20.2006 110.77 111.27
32 -12.1038 111.27 105.8
33 -10.5093 108.728 105.8
34 -14.0484 111.27 111.27
35 -20.2006 110.77 111.27
36 -19.0059 111.27 104.5
37 -16.4438 108.728 104.5
38 -16.4438 108.728 104.5
39 0 109.5 104.5

EndBondTorsion Coeffs

1 -0.0732 0 0 -0.0732 0 0 1.53 1.53
2 -0.0732 0 0 -0.0732 0 0 1.53 1.53
3 -0.0732 0 0 -0.0732 0 0 1.53 1.53
4 0.213 0.312 0.0777 0.213 0.312 0.0777 1.101 1.101
5 0.2486 0.2422 -0.0925 0.0814 0.0591 0.2219 1.53 1.101
6 0.2486 0.2422 -0.0925 0.0814 0.0591 0.2219 1.53 1.101
7 0.2486 0.2422 -0.0925 0.0814 0.0591 0.2219 1.53 1.101
8 -0.319 0.4411 -0.7174 1.1538 0.8409 -0.9138 1.53 1.42
9 -0.319 0.4411 -0.7174 1.1538 0.8409 -0.9138 1.53 1.42
10 1.0165 0.7553 -0.4609 1.0165 0.7553 -0.4609 1.42 1.42
11 0.9681 0.9551 0.0436 0.5903 0.6669 0.8584 1.101 1.42
12 -0.319 0.4411 -0.7174 1.1538 0.8409 -0.9138 1.53 1.42
13 1.0165 0.7553 -0.4609 1.0165 0.7553 -0.4609 1.42 1.42
14 -0.319 0.4411 -0.7174 1.1538 0.8409 -0.9138 1.53 1.42
15 0.9681 0.9551 0.0436 0.5903 0.6669 0.8584 1.101 1.42
16 1.0165 0.7553 -0.4609 1.0165 0.7553 -0.4609 1.42 1.42
17 0.213 0.312 0.0777 0.213 0.312 0.0777 1.101 1.101
18 0.2486 0.2422 -0.0925 0.0814 0.0591 0.2219 1.53 1.101
19 1.0165 0.7553 -0.4609 1.0165 0.7553 -0.4609 1.42 1.42
20 -0.319 0.4411 -0.7174 1.1538 0.8409 -0.9138 1.53 1.42
21 0.9681 0.9551 0.0436 0.5903 0.6669 0.8584 1.101 1.42
22 0.213 0.312 0.0777 0.213 0.312 0.0777 1.101 1.101
23 0.2486 0.2422 -0.0925 0.0814 0.0591 0.2219 1.53 1.101
24 -0.319 0.4411 -0.7174 1.1538 0.8409 -0.9138 1.53 1.42
25 0.9681 0.9551 0.0436 0.5903 0.6669 0.8584 1.101 1.42
26 -0.2456 1.0517 -0.7795 0.4741 1.2635 0.5576 1.53 1.42
27 -0.2456 1.0517 -0.7795 0.4741 1.2635 0.5576 1.53 1.42
28 -0.58 0.9004 0 0 0.5343 0.9025 1.53 0.965
29 -1.7554 1.3145 0.2263 0.2493 0.6803 0 1.101 0.965
30 -0.58 0.9004 0 0 0.5343 0.9025 1.53 0.965
31 0.9681 0.9551 0.0436 0.5903 0.6669 0.8584 1.101 1.42
32 -0.58 0.9004 0 0 0.5343 0.9025 1.53 0.965
33 -1.7554 1.3145 0.2263 0.2493 0.6803 0 1.101 0.965
34 1.0165 0.7553 -0.4609 1.0165 0.7553 -0.4609 1.42 1.42
35 0.9681 0.9551 0.0436 0.5903 0.6669 0.8584 1.101 1.42
36 -0.2456 1.0517 -0.7795 0.4741 1.2635 0.5576 1.53 1.42
37 -0.6054 1.3339 0.9648 -0.162 0.1564 -1.1408 1.101 1.42
38 -0.6054 1.3339 0.9648 -0.162 0.1564 -1.1408 1.101 1.42
39 0 0 0 0 0 0 1.42 1.42

MiddleBondTorsion Coeffs

1 -17.787 -7.1877 0 1.53
2 -17.787 -7.1877 0 1.53
3 -17.787 -7.1877 0 1.53
4 -14.261 -0.5322 -0.4864 1.53
5 -14.879 -3.6581 -0.3138 1.53
6 -14.879 -3.6581 -0.3138 1.53
7 -14.879 -3.6581 -0.3138 1.53
8 -21.8842 -7.6764 -0.6868 1.53
9 -21.8842 -7.6764 -0.6868 1.53
10 -17.2585 -3.6157 -0.8364 1.53
11 -16.7975 -1.2296 -0.275 1.53
12 -21.8842 -7.6764 -0.6868 1.53
13 -17.2585 -3.6157 -0.8364 1.53
14 -21.8842 -7.6764 -0.6868 1.53
15 -16.7975 -1.2296 -0.275 1.53
16 -17.2585 -3.6157 -0.8364 1.53
17 -14.261 -0.5322 -0.4864 1.53
18 -14.879 -3.6581 -0.3138 1.53
19 -17.2585 -3.6157 -0.8364 1.53
20 -21.8842 -7.6764 -0.6868 1.53
21 -16.7975 -1.2296 -0.275 1.53
22 -14.261 -0.5322 -0.4864 1.53
23 -14.879 -3.6581 -0.3138 1.53
24 -21.8842 -7.6764 -0.6868 1.53
25 -16.7975 -1.2296 -0.275 1.53
26 -5.9288 -2.7007 -0.3175 1.42
27 -5.9288 -2.7007 -0.3175 1.42
28 1.2472 0 0.7485 1.42
29 0 0.9241 -0.5889 1.42
30 1.2472 0 0.7485 1.42
31 -16.7975 -1.2296 -0.275 1.53
32 1.2472 0 0.7485 1.42
33 0 0.9241 -0.5889 1.42
34 -17.2585 -3.6157 -0.8364 1.53
35 -16.7975 -1.2296 -0.275 1.53
36 -5.9288 -2.7007 -0.3175 1.42
37 -6.8007 -4.6546 -1.4101 1.42
38 -6.8007 -4.6546 -1.4101 1.42
39 0 0 0 1.42

BondBond13 Coeffs

1 0 1.53 1.53
2 0 1.53 1.53
3 0 1.53 1.53
4 0 1.101 1.101
5 0 1.53 1.101
6 0 1.53 1.101
7 0 1.53 1.101
8 0 1.53 1.42
9 0 1.53 1.42
10 0 1.42 1.42
11 0 1.101 1.42
12 0 1.53 1.42
13 0 1.42 1.42
14 0 1.53 1.42
15 0 1.101 1.42
16 0 1.42 1.42
17 0 1.101 1.101
18 0 1.53 1.101
19 0 1.42 1.42
20 0 1.53 1.42
21 0 1.101 1.42
22 0 1.101 1.101
23 0 1.53 1.101
24 0 1.53 1.42
25 0 1.101 1.42
26 0 1.53 1.42
27 0 1.53 1.42
28 0 1.53 0.965
29 0 1.101 0.965
30 0 1.53 0.965
31 0 1.101 1.42
32 0 1.53 0.965
33 0 1.101 0.965
34 0 1.42 1.42
35 0 1.101 1.42
36 0 1.53 1.42
37 0 1.101 1.42
38 0 1.101 1.42
39 0 1.42 1.42

AngleTorsion Coeffs

1 0.3886 -0.3139 0.1389 0.3886 -0.3139 0.1389 112.67 112.67
2 0.3886 -0.3139 0.1389 0.3886 -0.3139 0.1389 112.67 112.67
3 0.3886 -0.3139 0.1389 0.3886 -0.3139 0.1389 112.67 112.67
4 -0.8085 0.5569 -0.2466 -0.8085 0.5569 -0.2466 110.77 110.77
5 -0.2454 0 -0.1136 0.3113 0.4516 -0.1988 112.67 110.77
6 -0.2454 0 -0.1136 0.3113 0.4516 -0.1988 112.67 110.77
7 -0.2454 0 -0.1136 0.3113 0.4516 -0.1988 112.67 110.77
8 0.5623 -0.3041 -0.4015 0.9672 -0.7566 -1.2331 112.67 111.27
9 0.5623 -0.3041 -0.4015 0.9672 -0.7566 -1.2331 112.67 111.27
10 0.5511 0.9737 -0.6673 0.5511 0.9737 -0.6673 111.27 111.27
11 2.3668 2.492 -1.0122 -0.1892 0.4918 0.7273 110.77 111.27
12 0.5623 -0.3041 -0.4015 0.9672 -0.7566 -1.2331 112.67 111.27
13 0.5511 0.9737 -0.6673 0.5511 0.9737 -0.6673 111.27 111.27
14 0.5623 -0.3041 -0.4015 0.9672 -0.7566 -1.2331 112.67 111.27
15 2.3668 2.492 -1.0122 -0.1892 0.4918 0.7273 110.77 111.27
16 0.5511 0.9737 -0.6673 0.5511 0.9737 -0.6673 111.27 111.27
17 -0.8085 0.5569 -0.2466 -0.8085 0.5569 -0.2466 110.77 110.77
18 -0.2454 0 -0.1136 0.3113 0.4516 -0.1988 112.67 110.77
19 0.5511 0.9737 -0.6673 0.5511 0.9737 -0.6673 111.27 111.27
20 0.5623 -0.3041 -0.4015 0.9672 -0.7566 -1.2331 112.67 111.27
21 2.3668 2.492 -1.0122 -0.1892 0.4918 0.7273 110.77 111.27
22 -0.8085 0.5569 -0.2466 -0.8085 0.5569 -0.2466 110.77 110.77
23 -0.2454 0 -0.1136 0.3113 0.4516 -0.1988 112.67 110.77
24 0.5623 -0.3041 -0.4015 0.9672 -0.7566 -1.2331 112.67 111.27
25 2.3668 2.492 -1.0122 -0.1892 0.4918 0.7273 110.77 111.27
26 -2.7466 1.4877 -0.8955 0.5676 0.945 0.0703 111.27 104.5
27 -2.7466 1.4877 -0.8955 0.5676 0.945 0.0703 111.27 104.5
28 -3.5903 2.5225 0.4888 0.8726 -0.3577 0.3888 111.27 105.8
29 -3.406 1.6396 0.0737 0 -0.281 -0.5944 108.728 105.8
30 -3.5903 2.5225 0.4888 0.8726 -0.3577 0.3888 111.27 105.8
31 2.3668 2.492 -1.0122 -0.1892 0.4918 0.7273 110.77 111.27
32 -3.5903 2.5225 0.4888 0.8726 -0.3577 0.3888 111.27 105.8
33 -3.406 1.6396 0.0737 0 -0.281 -0.5944 108.728 105.8
34 0.5511 0.9737 -0.6673 0.5511 0.9737 -0.6673 111.27 111.27
35 2.3668 2.492 -1.0122 -0.1892 0.4918 0.7273 110.77 111.27
36 -2.7466 1.4877 -0.8955 0.5676 0.945 0.0703 111.27 104.5
37 -1.8234 1.6393 0.5144 -0.7777 0.434 -0.6653 108.728 104.5
38 -1.8234 1.6393 0.5144 -0.7777 0.434 -0.6653 108.728 104.5
39 0 0 0 0 0 0 109.5 104.5

Improper Coeffs # class2

1 0 0
2 0 0
3 0 0
4 0 0
5 0 0
6 0 0
7 0 0
8 0 0
9 0 0
10 0 0
11 0 0
12 0 0
13 0 0
14 0 0
15 0 0
16 0 0
17 0 0

AngleAngle Coeffs

1 -1.3199 -1.3199 0.1184 112.67 110.77 110.77
2 -0.833 -0.833 -3.5744 112.67 111.27 111.27
3 -0.833 -0.833 -3.5744 112.67 111.27 111.27
4 -1.3199 -1.3199 0.1184 112.67 110.77 110.77
5 -0.833 -0.833 -3.5744 112.67 111.27 111.27
6 -1.3199 -1.3199 0.1184 112.67 110.77 110.77
7 -0.833 -0.833 -3.5744 112.67 111.27 111.27
8 3.9177 2.5926 0.1689 110.77 111.27 108.728
9 3.9177 2.5926 0.1689 110.77 111.27 108.728
10 0.2738 -0.4825 0.2738 110.77 110.77 107.66
11 3.9177 2.5926 0.1689 110.77 111.27 108.728
12 3.9177 2.5926 0.1689 110.77 111.27 108.728
13 0 0 0 111.27 109.5 111.27
14 3.9177 2.5926 0.1689 110.77 111.27 108.728
15 3.9177 2.5926 0.1689 110.77 111.27 108.728
16 2.4259 2.4259 2.1283 107.66 108.728 108.728
17 0 0 0 108.728 109.5 108.728

Atoms # full

22 2 4 0.063 2.3019117527548785 2.212638894852356 1.8763230892263727 0 0 0
38 1 5 0.424 -0.4174600365008265 2.634310069207328 6.151905717656416 0 0 0
39 1 5 0.424 -0.15206228175748837 2.985165708095903 2.712649171855107 0 0 0
43 1 3 0.243 -0.02419317923905062 0.2100264167497934 5.814109397613447 0 0 0
44 1 4 0.063 -1.0823374167154998 -0.06911696852798066 5.945230174389738 0 0 0
45 1 1 0.213 0.10890649880502412 1.4392926569874445 4.797137466553136 0 0 0
46 1 4 0.063 1.1369116688404515 1.75989293341261 4.891283364901484 0 0 0
47 1 1 0.213 -0.2623557891881605 1.0732729401020906 3.3810259302249754 0 0 0
48 1 4 0.063 -1.3759347768342733 0.9845145793627594 3.470033318023414 0 0 0
49 1 1 0.213 0.2502366141719259 -0.2901650793418653 2.978287639190534 0 0 0
50 1 4 0.063 1.2921900059357796 -0.1938709504943843 2.7734493788652133 0 0 0
51 1 1 0.213 0.17788010890190709 -1.3995080420004673 4.110240764299583 0 0 0
52 1 4 0.063 -0.8236845383969187 -1.642177398109313 4.283399191705859 0 0 0
56 1 7 -0.68 -0.7445878700329458 2.5608553903964086 5.277374385192373 0 0 0
57 1 7 -0.68 0.13357429501751383 2.076309970889106 2.432237354184728 0 0 0
58 1 6 -0.5091 -0.35880429502618716 -0.8347908311015813 1.7891254638331748 0 0 0
59 1 6 -0.5091 0.6518846605643365 -0.8899142383784291 5.327925294138088 0 0 0
66 2 4 0.063 2.472756631339392 5.0087967924202985 6.000876495356521 0 0 0
188 6 4 0.063 -2.7324080368435073 3.8438043387759855 3.1921085957815545 1 0 0
192 6 4 0.063 -2.4021465987267394 2.985949695642704 0.6964290161023301 1 0 0
196 6 4 0.063 -2.4530205383561214 5.51113421359259 1.2583172729090972 1 0 0
236 6 4 0.063 -2.813656568073613 3.897917965213514 5.208034846616246 1 0 0
289 7 5 0.424 -0.0024853583567265858 5.347529686334202 1.5575880793843446 0 0 0
305 7 2 0.2503 -0.005426127175890194 5.454301360782455 3.5280014646599964 0 0 0
307 7 4 0.063 -0.26686267175680056 4.8556812813304235 4.418898950851873 0 0 0
312 7 7 -0.68 -0.3461379542966405 4.772221536328975 2.3433101516372794 0 0 0
2 1 4 0.063 1.4709071661861595 -0.23426189790857443 0.6410030998954999 0 0 0
1 1 3 0.243 0.35065873999235553 -0.5873099245239459 0.5468138149061483 0 0 0
70 2 4 0.063 2.587463642344736 2.7199234395941767 6.3156229112648266 0 0 0
306 7 4 0.063 1.0777501929924531 5.61073717617232 3.496494440853498 0 0 0
1512 18 5 0.424 -2.0274762253984306 -0.14377335655273438 0.620538297802063 1 1 1
773 1 6 -0.5091 -0.31930244405714614 0.6168819495343261 -0.06133960902643168 0 0 1
708 18 7 -0.68 -2.802806078637778 -0.5678446501266243 0.1082449959019785 1 1 0
195 6 1 0.213 -3.5909135818224724 5.488584539864848 1.285641731172708 1 0 0
240 6 4 0.063 -2.543656929194557 1.3505019715439568 6.379309735455057 1 0 0
534 14 4 0.063 3.110731635163706 -1.6862999783094563 0.9171350955110873 0 1 0
76 2 6 -0.5091 3.210753687817064 3.3634675612474902 4.136023361286502 0 0 0
35 2 6 -0.5091 3.2703398221444395 4.756207209499197 2.3334929961010955 0 0 0
40 2 5 0.424 3.540260643679745 5.728990503943529 3.9805716822191144 0 0 0
42 2 5 0.424 4.061741591469682 -0.18662204368604085 5.139676533624918 0 0 0
65 2 1 0.213 3.5506171859757396 5.204474801924548 5.826048966789696 0 0 0
69 2 1 0.213 3.6513517642683144 2.7464651560821878 6.435266245265155 0 0 0
83 2 5 0.424 3.8547417522959844 1.1008612923555239 3.2839464755676167 0 0 0
19 2 3 0.243 3.811809543813421 3.495709202675431 2.8407882914150346 0 0 0
20 2 4 0.063 4.908603216208872 3.5150954125351843 2.9241839814924178 0 0 0
21 2 1 0.213 3.3450874162595587 2.351240833729255 1.856851086650495 0 0 0
23 2 1 0.213 3.8953938824498993 2.6530699691523534 0.4367868578578914 0 0 0
24 2 4 0.063 4.986968704177805 2.727509570322689 0.5496537977771082 0 0 0
27 2 1 0.213 3.7226006192379035 5.135294386878652 1.052543501639012 0 0 0
28 2 4 0.063 4.8183422059111 5.2113582149738695 1.0728357733656795 0 0 0
32 2 7 -0.68 3.90136070942667 1.0565984001100204 2.318491229352385 0 0 0
67 2 1 0.213 3.9941483174734023 3.752345305816582 5.316764278532544 0 0 0
68 2 4 0.063 5.066381103660748 3.6399528440587536 4.975625743034773 0 0 0
78 2 7 -0.68 4.070963419305605 0.7595111677536539 4.9671386741726655 0 0 0
85 3 3 0.243 8.071835277182505 -0.3051490512202162 0.3068543545886565 0 0 0
86 3 4 0.063 9.102991641545156 -0.05174717369442394 0.5432529417791306 0 0 0
106 4 4 0.063 10.010006776944904 2.270625723835484 1.6233369873339611 0 0 0
119 4 6 -0.5091 10.944578864322152 4.891109364891291 2.444498019908472 0 0 0
122 3 5 0.424 7.641394953988652 2.9531176538298087 5.8335553845847254 0 0 0
123 3 5 0.424 7.746515384399297 1.637415405764234 1.3172430892656217 0 0 0
127 3 3 0.243 7.76833284616437 0.3706542535302635 5.593035082340843 0 0 0
128 3 4 0.063 6.708631730742576 0.3022710154050432 5.774824290793924 0 0 0
129 3 1 0.213 7.957821933903652 1.5528671641503413 4.538317271437508 0 0 0
130 3 4 0.063 9.081477324464169 1.7837237856460786 4.474967175508145 0 0 0
131 3 1 0.213 7.530522035531529 1.1619099889542257 3.1219895247237934 0 0 0
132 3 4 0.063 6.398014802081875 1.060021871461882 3.190033553791992 0 0 0
133 3 1 0.213 8.064650407585749 -0.1955504919633131 2.6866502393131437 0 0 0
134 3 4 0.063 9.149183568609716 -0.09274944732896406 2.44209325615787 0 0 0
135 3 1 0.213 7.834145799010999 -1.217963029291754 3.7971225516840468 0 0 0
136 3 4 0.063 6.716027898534568 -1.272725334758828 3.808975319566462 0 0 0
140 3 7 -0.68 7.263837143532806 2.76502264653106 4.987434002105735 0 0 0
141 3 7 -0.68 7.836199902078578 2.1781479273382507 2.1060488972076263 0 0 0
142 3 6 -0.5091 7.374854864986439 -0.577949123264792 1.4834537235575775 0 0 0
143 3 6 -0.5091 8.348259496404689 -0.90142460352328 5.107726169948984 0 0 0
149 4 1 0.213 10.801205287821167 5.208459167011229 5.607542322151996 0 0 0
150 4 4 0.063 9.603726051535924 5.134815653402362 5.635133130435315 0 0 0
160 4 6 -0.5091 10.654086232766668 3.368914386361502 4.084112421404561 0 0 0
373 9 5 0.424 7.282965973556081 3.960668060411714 2.471618720628589 0 0 0
389 9 2 0.2503 7.701099372136369 5.602971834532313 3.4670221686392226 0 0 0
391 9 4 0.063 7.510629046556456 4.997575457921851 4.389522393917339 0 0 0
396 9 7 -0.68 7.116303258729895 4.9245606360960865 2.3766386113738114 0 0 0
416 9 5 0.424 7.74627765067785 5.319487665926693 0.6259842457999922 0 0 0
533 14 2 0.2503 4.171996036155813 -1.7594723345323826 1.0225016035117143 0 1 0
535 14 4 0.063 4.342178297119767 -1.2851159208532639 2.0377173046184596 0 1 0
153 4 1 0.213 10.882115641366147 2.7779794352807414 6.375083063598584 0 0 0
71 2 2 0.2503 4.173777819704047 1.3422813657129393 6.232931695728564 0 0 0
105 4 1 0.213 11.051371055197835 2.4979770005310167 1.784227878752486 0 0 0
72 2 4 0.063 5.26233664472546 1.3233922288836477 6.529877725935889 0 0 0
390 9 4 0.063 8.804581287330379 5.662899037885588 3.322590593839635 0 0 0
154 4 4 0.063 9.768580055545405 2.812047218983058 6.341303031149517 0 0 0
124 4 5 0.424 10.823973783135965 5.891177879351165 3.834513299987942 0 0 0
579 14 7 -0.68 4.590467646817947 -2.037192529665251 4.892633486330464 0 1 0
103 4 3 0.243 11.347629245016856 3.5870788757172 2.854655425079274 0 0 0
109 4 1 0.213 11.09953744523156 4.238454525624659 0.027500868699111614 0 0 0
165 3 5 0.424 8.243895163977264 -1.842140907437725 6.533426509432224 0 0 0
151 4 1 0.213 11.297027555033793 3.8057684654817576 5.278716208946857 0 0 0
618 16 4 0.063 10.533267890649903 -1.3736951682135654 1.123645123410036 0 1 0
25 2 1 0.213 3.3903412164568607 4.1180238386299655 -0.05364316771673973 0 0 0
1344 14 5 0.424 4.347960911629699 -0.1713967757164081 0.09980108233952395 0 1 1
155 4 2 0.2503 11.341300005676283 1.2320535718822265 6.2220799847900725 0 0 0
100 3 6 -0.5091 8.40140386953954 0.6611840891931946 6.8631844368797985 0 0 0
157 4 4 0.063 10.68844823151509 0.5712435083964382 6.832901008753685 0 0 0
110 4 4 0.063 10.013125381849658 4.115543661956185 -0.06704509429488854 0 0 0
540 14 7 -0.68 4.727860166242011 -1.059429544678562 -0.06987016002348882 0 1 0
162 4 7 -0.68 11.474182203322146 0.7354898202063773 4.892338712209798 0 0 0
167 4 5 0.424 11.51573078624556 1.2572026947149104 3.245881034850746 0 0 0
111 4 1 0.213 11.435789499136941 5.283489292018491 1.139742969528921 0 0 0
107 4 1 0.213 11.600767126201223 2.851999074475269 0.40895999855325793 0 0 0
126 4 5 0.424 11.821047417037 -0.22315042057017465 5.049594109528253 0 0 0
116 4 7 -0.68 11.544885851171442 1.1909944752704353 2.248323401391242 0 0 0
703 18 4 0.063 19.33741578102346 -1.0092047774620947 2.1832751375160995 0 1 0
617 16 2 0.2503 11.644411589423768 -1.419433355063024 1.0935170732536463 0 1 0
619 16 4 0.063 12.049837625448983 -1.0079478151649426 2.0123566076992363 0 1 0
239 6 2 0.2503 18.925197672103216 1.4427987247423144 6.32227553747067 0 0 0
210 6 5 0.424 18.59108685615793 -0.09873711518066441 5.215376815086754 0 0 0
191 6 1 0.213 19.036141050338138 3.002002055966984 0.5866065964420999 0 0 0
702 18 4 0.063 18.14663281710864 -1.2369463284526785 1.0264408921922903 0 1 0
701 18 2 0.2503 19.21710125667576 -1.370792738954136 1.1485199114703246 0 1 0
251 6 5 0.424 18.64568434546132 1.5151262823315297 3.5194345779884215 0 0 0
104 4 4 0.063 12.396759229425033 3.5184610792062596 3.0842298131049586 0 0 0
108 4 4 0.063 12.710392187202117 2.840829008458333 0.46162968470692933 0 0 0
112 4 4 0.063 12.566408110946846 5.457172716673431 1.1719786081226096 0 0 0
152 4 4 0.063 12.367475085049028 3.931556237496781 5.170113139750159 0 0 0
169 5 3 0.243 15.300967843482505 -0.45354146367796133 0.578812086406415 0 0 0
170 5 4 0.063 16.420611971366426 -0.295892687021049 0.5808151320915145 0 0 0
187 6 3 0.243 18.79471293361675 3.872905453165542 3.0091045013073563 0 0 0
189 6 1 0.213 18.51815150727115 2.8111820177152955 1.9810274984428382 0 0 0
190 6 4 0.063 17.36602582096598 2.7561878852564012 1.9021149984572832 0 0 0
200 6 7 -0.68 19.00957671051693 1.5472193138016732 2.52831075816693 0 0 0
203 6 6 -0.5091 18.389526750438336 5.144652117622876 2.5698140191823007 0 0 0
206 5 5 0.424 14.653119488879168 2.8444922809408313 6.231395593380933 0 0 0
207 5 5 0.424 14.235353956134587 1.6733120485788708 1.6926894398385857 0 0 0
211 5 3 0.243 14.97615232499418 0.39138307832840047 5.815087987039587 0 0 0
212 5 4 0.063 13.949730063866488 0.004915534550821832 6.076842772902615 0 0 0
213 5 1 0.213 14.950301742159168 1.593062382105063 4.822344427577258 0 0 0
214 5 4 0.063 15.96669463318615 1.9064084822199758 4.758739189506505 0 0 0
215 5 1 0.213 14.539687163100814 1.1463244031008202 3.4527204704125714 0 0 0
216 5 4 0.063 13.52966629873463 0.7561137514111351 3.6464934843490675 0 0 0
217 5 1 0.213 15.323068532799395 -0.16030538033272523 3.0003637113576143 0 0 0
218 5 4 0.063 16.414932862004292 0.033892569683694695 2.866126453752532 0 0 0
219 5 1 0.213 15.20996000297067 -1.1400985450759766 4.119394281310725 0 0 0
220 5 4 0.063 14.099197153800029 -1.2817205595622774 4.313920908288896 0 0 0
224 5 7 -0.68 14.212788975743623 2.6998635466121623 5.314098852533435 0 0 0
225 5 7 -0.68 14.644048363061193 2.1578189233232044 2.457424717036598 0 0 0
226 5 6 -0.5091 14.658616376704346 -0.8233304481468406 1.8742965871309818 0 0 0
227 5 6 -0.5091 15.788307850104838 -0.6896648428856613 5.334406857741758 0 0 0
233 6 1 0.213 18.4347479027522 5.439479373960355 5.904753395614934 0 0 0
234 6 4 0.063 17.331812106787424 5.6091301137389245 5.801171110992968 0 0 0
235 6 1 0.213 18.68870562092568 3.923635392518122 5.371703966299671 0 0 0
237 6 1 0.213 18.40267262133586 2.9301200213248553 6.542070316246461 0 0 0
244 6 6 -0.5091 17.980270617625685 3.5932187948731986 4.162867041688192 0 0 0
246 6 7 -0.68 18.475379069588882 0.8970821821272579 5.140706978462824 0 0 0
457 11 5 0.424 14.629324851888969 3.867242888413709 3.0294963519253915 0 0 0
473 11 2 0.2503 15.259341391435859 5.5916016290125015 3.847996724878413 0 0 0
475 11 4 0.063 15.285115059656752 5.083680048601939 4.845563503643392 0 0 0
480 11 7 -0.68 14.492626511059521 4.852158262957006 2.8490463996523165 0 0 0
500 11 5 0.424 14.90297700215262 5.525665502382897 1.0889425228717518 0 0 0
238 6 4 0.063 17.338644822434816 2.8069227355094917 6.671659297346442 0 0 0
156 4 4 0.063 12.355805322829346 1.156165472871629 6.647467503188666 0 0 0
663 16 7 -0.68 12.060041071775522 -2.037318424889154 4.888965110334913 0 1 0
474 11 4 0.063 16.283770065165676 5.790386431697764 3.5128687389855946 0 0 0
193 6 1 0.213 18.604749069243354 4.47498863084708 0.173890291429677 0 0 0
747 18 7 -0.68 19.419478970787296 -2.0053196040446624 4.87192274786481 0 1 0
1190 11 7 -0.68 15.22653589165049 5.489702894464318 0.15561775587862742 0 0 1
1006 6 5 0.424 19.07334807724491 1.132345278233975 0.08035497159313987 0 0 1
194 6 4 0.063 17.42230469859743 4.55148089765609 0.04899240590963039 0 0 0
1428 16 5 0.424 11.926668655042173 0.17059606494689694 0.04141518014763382 0 1 1
624 16 7 -0.68 12.13290099822815 -0.7822972232491601 -0.02877896305626089 0 1 0
941 5 6 -0.5091 14.654634950359165 0.689433312088878 0.02687597912432954 0 0 1
253 7 3 0.243 -0.19724567759777756 7.672002729884149 0.1575559320146574 0 0 0
254 7 4 0.063 0.826362530175663 7.935940321398959 0.40686286099123337 0 0 0
273 8 1 0.213 2.6185610144359135 10.734390112955111 1.914344463882054 0 0 0
274 8 4 0.063 1.498891836331219 10.438557185323194 1.8328402578302274 0 0 0
287 8 6 -0.5091 2.2790035522518437 13.114929665722208 2.4232092480248664 0 0 0
290 7 5 0.424 -1.6140735046941403 10.578845385381266 5.7567862066135795 0 0 0
291 7 5 0.424 -1.077239083250336 9.966006477871364 1.1379761462603384 0 0 0
295 7 3 0.243 -0.8680608464665789 8.437690197838059 5.381399427289423 0 0 0
296 7 4 0.063 -1.8811105198217453 8.059509231571672 5.73627424427854 0 0 0
297 7 1 0.213 -0.8920747703328582 9.632787416007075 4.390681127249629 0 0 0
298 7 4 0.063 0.12418281151922761 10.084374673028186 4.344408694445338 0 0 0
299 7 1 0.213 -1.2511860604520797 9.177395008208437 2.9609758551112044 0 0 0
300 7 4 0.063 -2.3106758080660166 8.836367598560914 2.776012349559727 0 0 0
301 7 1 0.213 -0.334291326216392 7.948549441586293 2.5895626514420114 0 0 0
302 7 4 0.063 0.7194277486253107 8.20995249960012 2.504862287804615 0 0 0
303 7 1 0.213 -0.5411110690099807 6.915431772336097 3.7102156590319133 0 0 0
304 7 4 0.063 -1.5857395708622508 6.832187199019012 3.7221445995089026 0 0 0
308 7 7 -0.68 -1.7777060102749145 10.604613828721794 4.832954469680165 0 0 0
309 7 7 -0.68 -0.8784859636054441 10.342413071301722 1.996100691130541 0 0 0
310 7 6 -0.5091 -0.7495611400125581 7.274822822148252 1.340319552754809 0 0 0
311 7 6 -0.5091 -0.02253461741519125 7.327686254817989 4.979406126966871 0 0 0
317 8 1 0.213 2.182137953314726 13.38108958855279 5.924319576407075 0 0 0
318 8 4 0.063 1.0786496325364796 13.335162361836547 6.122224625122973 0 0 0
328 8 6 -0.5091 1.9784130212175794 11.557051013843877 4.166649421375261 0 0 0
440 12 4 0.063 -3.7553019124700566 12.128543643201091 3.0308117980108125 1 0 0
444 12 4 0.063 -3.5956641952045523 11.122942502357727 0.682259923757399 1 0 0
448 12 4 0.063 -3.758375209670425 13.73854615775326 1.49503152135082 1 0 0
488 12 4 0.063 -3.6017088161019712 12.16935852178502 5.34301735288892 1 0 0
541 13 5 0.424 -1.1133999415876452 12.076156507358771 2.8926018438305703 0 0 0
557 13 2 0.2503 -0.8117052535560563 13.697525672893079 3.899844874692085 0 0 0
559 13 4 0.063 -0.7879645230918582 13.233793674545005 4.84364889104672 0 0 0
564 13 7 -0.68 -1.3428219829456283 12.99896569859001 2.7500933931223726 0 0 0
584 13 5 0.424 -1.213085450864828 13.301974121642761 0.8215560397052881 0 0 0
322 8 4 0.063 1.553754284698437 10.765417657408229 6.683829545330295 0 0 0
321 8 1 0.213 2.632594084985252 10.946462009986703 6.534407230606906 0 0 0
30 2 4 0.063 2.2103984382343533 6.732274202079671 1.0271952366579276 0 0 0
277 8 1 0.213 2.6113897292024273 12.507180805667744 0.005083525863588512 0 0 0
558 13 4 0.063 0.16963708414646872 13.982081909644643 3.674903258029777 0 0 0
492 12 4 0.063 -3.280771900769006 9.650945342376176 6.726994818072151 1 0 0
330 8 7 -0.68 2.5534230478687423 8.901749612210102 5.1713671588736405 0 0 0
199 6 4 0.063 -3.486885825770496 7.554828653186322 1.9074338785251812 1 0 0
278 8 4 0.063 1.5084208846204028 12.573376976768504 -0.1105528066695623 0 0 0
271 8 3 0.243 2.7219005444973545 11.869476648153494 2.9769847629955843 0 0 0
319 8 1 0.213 2.6645569503321456 12.05154887040278 5.369961914552146 0 0 0
294 8 5 0.424 2.7386247524489677 8.01086982419376 5.200791732766475 0 0 0