LAMMPS data file via write_data, version 27 Jun 2024, timestep = 1000000, units = real

1512 atoms
7 atom types
1584 bonds
11 bond types
2952 angles
23 angle types
4752 dihedrals
39 dihedral types
1728 impropers
17 improper types

-2.344607169311951 19.465882369309934 xlo xhi
-2.1369797184951356 22.505653523493407 ylo yhi
-0.15337431437218463 20.99424054037236 zlo zhi
-2.8294594947316787 0 0 xy xz yz

Atom Type Labels

1 c1
2 c2
3 coh
4 hc
5 ho
6 oc
7 oh

Bond Type Labels

1 c1-c1
2 c1-c2
3 c1-coh
4 c1-hc
5 c1-oc
6 c1-oh
7 c2-hc
8 c2-oh
9 coh-hc
10 coh-oc
11 ho-oh

Angle Type Labels

1 c1-c1-c1
2 c1-c1-c2
3 c1-c1-coh
4 c1-c1-hc
5 c1-c1-oc
6 c1-c1-oh
7 c1-c2-hc
8 c1-c2-oh
9 c1-coh-hc
10 c1-coh-oc
11 c1-oc-coh
12 c1-oh-ho
13 c2-c1-hc
14 c2-c1-oc
15 c2-oh-ho
16 coh-c1-hc
17 coh-c1-oh
18 hc-c1-oc
19 hc-c1-oh
20 hc-c2-hc
21 hc-c2-oh
22 hc-coh-oc
23 oc-coh-oc

Dihedral Type Labels

1 c1-c1-c1-c1
2 c1-c1-c1-c2
3 c1-c1-c1-coh
4 hc-c1-c1-hc
5 c1-c1-c1-hc
6 c2-c1-c1-hc
7 coh-c1-c1-hc
8 c1-c1-c1-oc
9 c2-c1-c1-oc
10 oc-c1-c1-oc
11 hc-c1-c1-oc
12 coh-c1-c1-oh
13 oc-c1-c1-oh
14 c1-c1-c1-oh
15 hc-c1-c1-oh
16 oh-c1-c1-oh
17 hc-c1-c2-hc
18 c1-c1-c2-hc
19 oc-c1-c2-oh
20 c1-c1-c2-oh
21 hc-c1-c2-oh
22 hc-c1-coh-hc
23 c1-c1-coh-hc
24 c1-c1-coh-oc
25 hc-c1-coh-oc
26 c2-c1-oc-coh
27 c1-c1-oc-coh
28 c1-c1-oh-ho
29 hc-c1-oh-ho
30 coh-c1-oh-ho
31 hc-c2-c1-oc
32 c1-c2-oh-ho
33 hc-c2-oh-ho
34 oc-coh-c1-oh
35 hc-coh-c1-oh
36 c1-coh-oc-c1
37 hc-c1-oc-coh
38 hc-coh-oc-c1
39 oc-coh-oc-c1

Improper Type Labels

1 c1-c1-c1-hc-nb!=3
2 c1-c1-c1-oc-nb!=3
3 c1-c1-c1-oh-nb!=3
4 c1-c1-c2-hc-nb!=3
5 c1-c1-c2-oc-nb!=3
6 c1-c1-coh-hc-nb!=3
7 c1-c1-coh-oh-nb!=3
8 c1-c1-hc-oc-nb!=3
9 c1-c1-hc-oh-nb!=3
10 c1-c2-hc-hc-nb!=3
11 c1-c2-hc-oh-nb!=3
12 c1-coh-hc-oc-nb!=3
13 c1-coh-oc-oc-nb!=3
14 c2-c1-hc-oc-nb!=3
15 coh-c1-hc-oh-nb!=3
16 hc-c2-hc-oh-nb!=3
17 hc-coh-oc-oc-nb!=3

Masses

1 12.01115
2 12.01115
3 12.01115
4 1.00797
5 1.00797
6 15.9994
7 15.9994

Pair Coeffs # lj/class2/coul/long

1 0.054 4.01
2 0.054 4.01
3 0.054 4.01
4 0.02 2.3
5 0.013 1.098
6 0.24 3.535
7 0.24 3.535

Bond Coeffs # morse

1 82.6961 2 1.53
2 82.6961 2 1.53
3 82.6961 2 1.53
4 98.2315 2 1.101
5 85.5641 2.3 1.42
6 85.5641 2.3 1.42
7 98.2315 2 1.101
8 85.5641 2.3 1.42
9 98.2315 2 1.101
10 85.5641 2.3 1.42
11 109.704 2.3 0.965

Angle Coeffs # class2xe

1 112.67 39.516 -7.443 -9.5583
2 112.67 39.516 -7.443 -9.5583
3 112.67 39.516 -7.443 -9.5583
4 110.77 41.453 -10.604 5.129
5 111.27 54.5381 -8.3642 -13.0838
6 111.27 54.5381 -8.3642 -13.0838
7 110.77 41.453 -10.604 5.129
8 111.27 54.5381 -8.3642 -13.0838
9 110.77 41.453 -10.604 5.129
10 111.27 54.5381 -8.3642 -13.0838
11 104.5 35.7454 -10.0067 -6.2729
12 105.8 52.7061 -12.109 -9.8681
13 110.77 41.453 -10.604 5.129
14 111.27 54.5381 -8.3642 -13.0838
15 105.8 52.7061 -12.109 -9.8681
16 110.77 41.453 -10.604 5.129
17 111.27 54.5381 -8.3642 -13.0838
18 108.728 58.5446 -10.8088 -12.4006
19 108.728 58.5446 -10.8088 -12.4006
20 107.66 39.641 -12.921 -2.4318
21 108.728 58.5446 -10.8088 -12.4006
22 108.728 58.5446 -10.8088 -12.4006
23 109.5 70 0 0

BondBond Coeffs

1 82.6961 0 1.53 1.53
2 82.6961 0 1.53 1.53
3 82.6961 0 1.53 1.53
4 90.4638 0.136826 1.53 1.101
5 84.1301 0.260655 1.53 1.42
6 84.1301 0.260655 1.53 1.42
7 90.4638 0.136826 1.53 1.101
8 84.1301 0.260655 1.53 1.42
9 90.4638 0.136826 1.53 1.101
10 84.1301 0.260655 1.53 1.42
11 85.5641 0.203877 1.42 1.42
12 97.6339 0.222741 1.42 0.965
13 90.4638 0.136826 1.53 1.101
14 84.1301 0.260655 1.53 1.42
15 97.6339 0.222741 1.42 0.965
16 90.4638 0.136826 1.53 1.101
17 84.1301 0.260655 1.53 1.42
18 91.8978 0.355269 1.101 1.42
19 91.8978 0.355269 1.101 1.42
20 98.2315 0.164736 1.101 1.101
21 91.8978 0.355269 1.101 1.42
22 91.8978 0.355269 1.101 1.42
23 85.5641 0 1.42 1.42

BondAngle Coeffs

1 82.6961 82.6961 0.220151 0.220151 1.53 1.53
2 82.6961 82.6961 0.220151 0.220151 1.53 1.53
3 82.6961 82.6961 0.220151 0.220151 1.53 1.53
4 82.6961 98.2315 0.354237 0.241108 1.53 1.101
5 82.6961 85.5641 0.127456 0.345294 1.53 1.42
6 82.6961 85.5641 0.127456 0.345294 1.53 1.42
7 82.6961 98.2315 0.354237 0.241108 1.53 1.101
8 82.6961 85.5641 0.127456 0.345294 1.53 1.42
9 82.6961 98.2315 0.354237 0.241108 1.53 1.101
10 82.6961 85.5641 0.127456 0.345294 1.53 1.42
11 85.5641 85.5641 0.12817 0.12817 1.42 1.42
12 85.5641 109.704 0.408668 0.293713 1.42 0.965
13 82.6961 98.2315 0.354237 0.241108 1.53 1.101
14 82.6961 85.5641 0.127456 0.345294 1.53 1.42
15 85.5641 109.704 0.408668 0.293713 1.42 0.965
16 82.6961 98.2315 0.354237 0.241108 1.53 1.101
17 82.6961 85.5641 0.127456 0.345294 1.53 1.42
18 98.2315 85.5641 0.153331 0.568601 1.101 1.42
19 98.2315 85.5641 0.153331 0.568601 1.101 1.42
20 98.2315 98.2315 0.303553 0.303553 1.101 1.101
21 98.2315 85.5641 0.153331 0.568601 1.101 1.42
22 98.2315 85.5641 0.153331 0.568601 1.101 1.42
23 85.5641 85.5641 0 0 1.42 1.42

Dihedral Coeffs # class2xe

1 0 0 0.0514 0 -0.143 0
2 0 0 0.0514 0 -0.143 0
3 0 0 0.0514 0 -0.143 0
4 -0.1432 0 0.0617 0 -0.1083 0
5 0 0 0.0316 0 -0.1681 0
6 0 0 0.0316 0 -0.1681 0
7 0 0 0.0316 0 -0.1681 0
8 0.7137 0 0.266 0 -0.2545 0
9 0.7137 0 0.266 0 -0.2545 0
10 -0.182 0 -0.1084 0 -0.7047 0
11 -0.1435 0 0.253 0 -0.0905 0
12 0.7137 0 0.266 0 -0.2545 0
13 -0.182 0 -0.1084 0 -0.7047 0
14 0.7137 0 0.266 0 -0.2545 0
15 -0.1435 0 0.253 0 -0.0905 0
16 -0.182 0 -0.1084 0 -0.7047 0
17 -0.1432 0 0.0617 0 -0.1083 0
18 0 0 0.0316 0 -0.1681 0
19 -0.182 0 -0.1084 0 -0.7047 0
20 0.7137 0 0.266 0 -0.2545 0
21 -0.1435 0 0.253 0 -0.0905 0
22 -0.1432 0 0.0617 0 -0.1083 0
23 0 0 0.0316 0 -0.1681 0
24 0.7137 0 0.266 0 -0.2545 0
25 -0.1435 0 0.253 0 -0.0905 0
26 -0.5203 0 -0.3028 0 -0.345 0
27 -0.5203 0 -0.3028 0 -0.345 0
28 -0.6732 0 -0.4778 0 -0.167 0
29 0.1863 0 -0.4338 0 -0.2121 0
30 -0.6732 0 -0.4778 0 -0.167 0
31 -0.1435 0 0.253 0 -0.0905 0
32 -0.6732 0 -0.4778 0 -0.167 0
33 0.1863 0 -0.4338 0 -0.2121 0
34 -0.182 0 -0.1084 0 -0.7047 0
35 -0.1435 0 0.253 0 -0.0905 0
36 -0.5203 0 -0.3028 0 -0.345 0
37 0.5302 0 0 0 -0.3966 0
38 0.5302 0 0 0 -0.3966 0
39 0 0 0 0 0.13 0

AngleAngleTorsion Coeffs

1 -22.045 112.67 112.67
2 -22.045 112.67 112.67
3 -22.045 112.67 112.67
4 -12.564 110.77 110.77
5 -16.164 112.67 110.77
6 -16.164 112.67 110.77
7 -16.164 112.67 110.77
8 -29.042 112.67 111.27
9 -29.042 112.67 111.27
10 -14.0484 111.27 111.27
11 -20.2006 110.77 111.27
12 -29.042 112.67 111.27
13 -14.0484 111.27 111.27
14 -29.042 112.67 111.27
15 -20.2006 110.77 111.27
16 -14.0484 111.27 111.27
17 -12.564 110.77 110.77
18 -16.164 112.67 110.77
19 -14.0484 111.27 111.27
20 -29.042 112.67 111.27
21 -20.2006 110.77 111.27
22 -12.564 110.77 110.77
23 -16.164 112.67 110.77
24 -29.042 112.67 111.27
25 -20.2006 110.77 111.27
26 -19.0059 111.27 104.5
27 -19.0059 111.27 104.5
28 -12.1038 111.27 105.8
29 -10.5093 108.728 105.8
30 -12.1038 111.27 105.8
31 -20.2006 110.77 111.27
32 -12.1038 111.27 105.8
33 -10.5093 108.728 105.8
34 -14.0484 111.27 111.27
35 -20.2006 110.77 111.27
36 -19.0059 111.27 104.5
37 -16.4438 108.728 104.5
38 -16.4438 108.728 104.5
39 0 109.5 104.5

EndBondTorsion Coeffs

1 2 2 -0.0732 0 0 -0.0732 0 0 1.53 1.53
2 2 2 -0.0732 0 0 -0.0732 0 0 1.53 1.53
3 2 2 -0.0732 0 0 -0.0732 0 0 1.53 1.53
4 2 2 0.213 0.312 0.0777 0.213 0.312 0.0777 1.101 1.101
5 2 2 0.2486 0.2422 -0.0925 0.0814 0.0591 0.2219 1.53 1.101
6 2 2 0.2486 0.2422 -0.0925 0.0814 0.0591 0.2219 1.53 1.101
7 2 2 0.2486 0.2422 -0.0925 0.0814 0.0591 0.2219 1.53 1.101
8 2 2.3 -0.319 0.4411 -0.7174 1.1538 0.8409 -0.9138 1.53 1.42
9 2 2.3 -0.319 0.4411 -0.7174 1.1538 0.8409 -0.9138 1.53 1.42
10 2.3 2.3 1.0165 0.7553 -0.4609 1.0165 0.7553 -0.4609 1.42 1.42
11 2 2.3 0.9681 0.9551 0.0436 0.5903 0.6669 0.8584 1.101 1.42
12 2 2.3 -0.319 0.4411 -0.7174 1.1538 0.8409 -0.9138 1.53 1.42
13 2.3 2.3 1.0165 0.7553 -0.4609 1.0165 0.7553 -0.4609 1.42 1.42
14 2 2.3 -0.319 0.4411 -0.7174 1.1538 0.8409 -0.9138 1.53 1.42
15 2 2.3 0.9681 0.9551 0.0436 0.5903 0.6669 0.8584 1.101 1.42
16 2.3 2.3 1.0165 0.7553 -0.4609 1.0165 0.7553 -0.4609 1.42 1.42
17 2 2 0.213 0.312 0.0777 0.213 0.312 0.0777 1.101 1.101
18 2 2 0.2486 0.2422 -0.0925 0.0814 0.0591 0.2219 1.53 1.101
19 2.3 2.3 1.0165 0.7553 -0.4609 1.0165 0.7553 -0.4609 1.42 1.42
20 2 2.3 -0.319 0.4411 -0.7174 1.1538 0.8409 -0.9138 1.53 1.42
21 2 2.3 0.9681 0.9551 0.0436 0.5903 0.6669 0.8584 1.101 1.42
22 2 2 0.213 0.312 0.0777 0.213 0.312 0.0777 1.101 1.101
23 2 2 0.2486 0.2422 -0.0925 0.0814 0.0591 0.2219 1.53 1.101
24 2 2.3 -0.319 0.4411 -0.7174 1.1538 0.8409 -0.9138 1.53 1.42
25 2 2.3 0.9681 0.9551 0.0436 0.5903 0.6669 0.8584 1.101 1.42
26 2 2.3 -0.2456 1.0517 -0.7795 0.4741 1.2635 0.5576 1.53 1.42
27 2 2.3 -0.2456 1.0517 -0.7795 0.4741 1.2635 0.5576 1.53 1.42
28 2 2.3 -0.58 0.9004 0 0 0.5343 0.9025 1.53 0.965
29 2 2.3 -1.7554 1.3145 0.2263 0.2493 0.6803 0 1.101 0.965
30 2 2.3 -0.58 0.9004 0 0 0.5343 0.9025 1.53 0.965
31 2 2.3 0.9681 0.9551 0.0436 0.5903 0.6669 0.8584 1.101 1.42
32 2 2.3 -0.58 0.9004 0 0 0.5343 0.9025 1.53 0.965
33 2 2.3 -1.7554 1.3145 0.2263 0.2493 0.6803 0 1.101 0.965
34 2.3 2.3 1.0165 0.7553 -0.4609 1.0165 0.7553 -0.4609 1.42 1.42
35 2 2.3 0.9681 0.9551 0.0436 0.5903 0.6669 0.8584 1.101 1.42
36 2 2.3 -0.2456 1.0517 -0.7795 0.4741 1.2635 0.5576 1.53 1.42
37 2 2.3 -0.6054 1.3339 0.9648 -0.162 0.1564 -1.1408 1.101 1.42
38 2 2.3 -0.6054 1.3339 0.9648 -0.162 0.1564 -1.1408 1.101 1.42
39 2.3 2.3 0 0 0 0 0 0 1.42 1.42

MiddleBondTorsion Coeffs

1 2 -17.787 -7.1877 0 1.53
2 2 -17.787 -7.1877 0 1.53
3 2 -17.787 -7.1877 0 1.53
4 2 -14.261 -0.5322 -0.4864 1.53
5 2 -14.879 -3.6581 -0.3138 1.53
6 2 -14.879 -3.6581 -0.3138 1.53
7 2 -14.879 -3.6581 -0.3138 1.53
8 2 -21.8842 -7.6764 -0.6868 1.53
9 2 -21.8842 -7.6764 -0.6868 1.53
10 2 -17.2585 -3.6157 -0.8364 1.53
11 2 -16.7975 -1.2296 -0.275 1.53
12 2 -21.8842 -7.6764 -0.6868 1.53
13 2 -17.2585 -3.6157 -0.8364 1.53
14 2 -21.8842 -7.6764 -0.6868 1.53
15 2 -16.7975 -1.2296 -0.275 1.53
16 2 -17.2585 -3.6157 -0.8364 1.53
17 2 -14.261 -0.5322 -0.4864 1.53
18 2 -14.879 -3.6581 -0.3138 1.53
19 2 -17.2585 -3.6157 -0.8364 1.53
20 2 -21.8842 -7.6764 -0.6868 1.53
21 2 -16.7975 -1.2296 -0.275 1.53
22 2 -14.261 -0.5322 -0.4864 1.53
23 2 -14.879 -3.6581 -0.3138 1.53
24 2 -21.8842 -7.6764 -0.6868 1.53
25 2 -16.7975 -1.2296 -0.275 1.53
26 2.3 -5.9288 -2.7007 -0.3175 1.42
27 2.3 -5.9288 -2.7007 -0.3175 1.42
28 2.3 1.2472 0 0.7485 1.42
29 2.3 0 0.9241 -0.5889 1.42
30 2.3 1.2472 0 0.7485 1.42
31 2 -16.7975 -1.2296 -0.275 1.53
32 2.3 1.2472 0 0.7485 1.42
33 2.3 0 0.9241 -0.5889 1.42
34 2 -17.2585 -3.6157 -0.8364 1.53
35 2 -16.7975 -1.2296 -0.275 1.53
36 2.3 -5.9288 -2.7007 -0.3175 1.42
37 2.3 -6.8007 -4.6546 -1.4101 1.42
38 2.3 -6.8007 -4.6546 -1.4101 1.42
39 2.3 0 0 0 1.42

BondBond13 Coeffs

1 82.6961 0 1.53 1.53
2 82.6961 0 1.53 1.53
3 82.6961 0 1.53 1.53
4 98.2315 0 1.101 1.101
5 90.4638 0 1.53 1.101
6 90.4638 0 1.53 1.101
7 90.4638 0 1.53 1.101
8 84.1301 0 1.53 1.42
9 84.1301 0 1.53 1.42
10 85.5641 0 1.42 1.42
11 91.8978 0 1.101 1.42
12 84.1301 0 1.53 1.42
13 85.5641 0 1.42 1.42
14 84.1301 0 1.53 1.42
15 91.8978 0 1.101 1.42
16 85.5641 0 1.42 1.42
17 98.2315 0 1.101 1.101
18 90.4638 0 1.53 1.101
19 85.5641 0 1.42 1.42
20 84.1301 0 1.53 1.42
21 91.8978 0 1.101 1.42
22 98.2315 0 1.101 1.101
23 90.4638 0 1.53 1.101
24 84.1301 0 1.53 1.42
25 91.8978 0 1.101 1.42
26 84.1301 0 1.53 1.42
27 84.1301 0 1.53 1.42
28 96.2 0 1.53 0.965
29 103.968 0 1.101 0.965
30 96.2 0 1.53 0.965
31 91.8978 0 1.101 1.42
32 96.2 0 1.53 0.965
33 103.968 0 1.101 0.965
34 85.5641 0 1.42 1.42
35 91.8978 0 1.101 1.42
36 84.1301 0 1.53 1.42
37 91.8978 0 1.101 1.42
38 91.8978 0 1.101 1.42
39 85.5641 0 1.42 1.42

AngleTorsion Coeffs

1 0.3886 -0.3139 0.1389 0.3886 -0.3139 0.1389 112.67 112.67
2 0.3886 -0.3139 0.1389 0.3886 -0.3139 0.1389 112.67 112.67
3 0.3886 -0.3139 0.1389 0.3886 -0.3139 0.1389 112.67 112.67
4 -0.8085 0.5569 -0.2466 -0.8085 0.5569 -0.2466 110.77 110.77
5 -0.2454 0 -0.1136 0.3113 0.4516 -0.1988 112.67 110.77
6 -0.2454 0 -0.1136 0.3113 0.4516 -0.1988 112.67 110.77
7 -0.2454 0 -0.1136 0.3113 0.4516 -0.1988 112.67 110.77
8 0.5623 -0.3041 -0.4015 0.9672 -0.7566 -1.2331 112.67 111.27
9 0.5623 -0.3041 -0.4015 0.9672 -0.7566 -1.2331 112.67 111.27
10 0.5511 0.9737 -0.6673 0.5511 0.9737 -0.6673 111.27 111.27
11 2.3668 2.492 -1.0122 -0.1892 0.4918 0.7273 110.77 111.27
12 0.5623 -0.3041 -0.4015 0.9672 -0.7566 -1.2331 112.67 111.27
13 0.5511 0.9737 -0.6673 0.5511 0.9737 -0.6673 111.27 111.27
14 0.5623 -0.3041 -0.4015 0.9672 -0.7566 -1.2331 112.67 111.27
15 2.3668 2.492 -1.0122 -0.1892 0.4918 0.7273 110.77 111.27
16 0.5511 0.9737 -0.6673 0.5511 0.9737 -0.6673 111.27 111.27
17 -0.8085 0.5569 -0.2466 -0.8085 0.5569 -0.2466 110.77 110.77
18 -0.2454 0 -0.1136 0.3113 0.4516 -0.1988 112.67 110.77
19 0.5511 0.9737 -0.6673 0.5511 0.9737 -0.6673 111.27 111.27
20 0.5623 -0.3041 -0.4015 0.9672 -0.7566 -1.2331 112.67 111.27
21 2.3668 2.492 -1.0122 -0.1892 0.4918 0.7273 110.77 111.27
22 -0.8085 0.5569 -0.2466 -0.8085 0.5569 -0.2466 110.77 110.77
23 -0.2454 0 -0.1136 0.3113 0.4516 -0.1988 112.67 110.77
24 0.5623 -0.3041 -0.4015 0.9672 -0.7566 -1.2331 112.67 111.27
25 2.3668 2.492 -1.0122 -0.1892 0.4918 0.7273 110.77 111.27
26 -2.7466 1.4877 -0.8955 0.5676 0.945 0.0703 111.27 104.5
27 -2.7466 1.4877 -0.8955 0.5676 0.945 0.0703 111.27 104.5
28 -3.5903 2.5225 0.4888 0.8726 -0.3577 0.3888 111.27 105.8
29 -3.406 1.6396 0.0737 0 -0.281 -0.5944 108.728 105.8
30 -3.5903 2.5225 0.4888 0.8726 -0.3577 0.3888 111.27 105.8
31 2.3668 2.492 -1.0122 -0.1892 0.4918 0.7273 110.77 111.27
32 -3.5903 2.5225 0.4888 0.8726 -0.3577 0.3888 111.27 105.8
33 -3.406 1.6396 0.0737 0 -0.281 -0.5944 108.728 105.8
34 0.5511 0.9737 -0.6673 0.5511 0.9737 -0.6673 111.27 111.27
35 2.3668 2.492 -1.0122 -0.1892 0.4918 0.7273 110.77 111.27
36 -2.7466 1.4877 -0.8955 0.5676 0.945 0.0703 111.27 104.5
37 -1.8234 1.6393 0.5144 -0.7777 0.434 -0.6653 108.728 104.5
38 -1.8234 1.6393 0.5144 -0.7777 0.434 -0.6653 108.728 104.5
39 0 0 0 0 0 0 109.5 104.5

Improper Coeffs # class2

1 0 0
2 0 0
3 0 0
4 0 0
5 0 0
6 0 0
7 0 0
8 0 0
9 0 0
10 0 0
11 0 0
12 0 0
13 0 0
14 0 0
15 0 0
16 0 0
17 0 0

AngleAngle Coeffs

1 -1.3199 -1.3199 0.1184 112.67 110.77 110.77
2 -0.833 -0.833 -3.5744 112.67 111.27 111.27
3 -0.833 -0.833 -3.5744 112.67 111.27 111.27
4 -1.3199 -1.3199 0.1184 112.67 110.77 110.77
5 -0.833 -0.833 -3.5744 112.67 111.27 111.27
6 -1.3199 -1.3199 0.1184 112.67 110.77 110.77
7 -0.833 -0.833 -3.5744 112.67 111.27 111.27
8 3.9177 2.5926 0.1689 110.77 111.27 108.728
9 3.9177 2.5926 0.1689 110.77 111.27 108.728
10 0.2738 -0.4825 0.2738 110.77 110.77 107.66
11 3.9177 2.5926 0.1689 110.77 111.27 108.728
12 3.9177 2.5926 0.1689 110.77 111.27 108.728
13 0 0 0 111.27 109.5 111.27
14 3.9177 2.5926 0.1689 110.77 111.27 108.728
15 3.9177 2.5926 0.1689 110.77 111.27 108.728
16 2.4259 2.4259 2.1283 107.66 108.728 108.728
17 0 0 0 108.728 109.5 108.728

Atoms # full

1 1 3 0.243 0.7240506881916091 -0.4243218195770102 0.3881594347151507 0 0 0
2 1 4 0.063 1.721265510141345 -0.0017746509961789059 0.574276299166712 0 0 0
22 2 4 0.063 2.390041725167511 2.528678582640076 1.9609932660613993 0 0 0
38 1 5 0.424 -0.04881322137933575 2.8668267111367527 6.054544706725195 0 0 0
39 1 5 0.424 -0.30594998062516465 1.7874590888535256 1.5204883260990576 0 0 0
43 1 3 0.243 0.4468598294281372 0.26118277183719796 5.707565263151212 0 0 0
44 1 4 0.063 -0.6099950217326051 -0.059461573326871964 5.829893286523332 0 0 0
45 1 1 0.213 0.46259867217970907 1.4581928789887537 4.725233042447892 0 0 0
46 1 4 0.063 1.5254678771384853 1.675432994974118 4.5781259142417285 0 0 0
47 1 1 0.213 -0.011787368131732645 0.9964268280550361 3.299311680399571 0 0 0
48 1 4 0.063 -1.0976021008565233 0.8789392501842861 3.4724105057720505 0 0 0
49 1 1 0.213 0.656587835703025 -0.26071009114999666 2.8674451075493956 0 0 0
50 1 4 0.063 1.6177845912127458 0.16566439906204788 2.5761524794661215 0 0 0
51 1 1 0.213 0.6156305480581459 -1.3055974657277147 3.9848633863336573 0 0 0
56 1 7 -0.68 -0.33949326278748604 2.565937601842869 5.1777199914609735 0 0 0
57 1 7 -0.68 0.23855501693373027 2.084789365895138 2.28229623694632 0 0 0
58 1 6 -0.5091 0.04881846928907363 -0.7475526267491934 1.6279116130798497 0 0 0
59 1 6 -0.5091 1.165286024486989 -0.7987266167589651 5.1776931242711814 0 0 0
66 2 4 0.063 2.346429609754116 5.119653574452328 5.845146481145168 0 0 0
188 6 4 0.063 -2.3577897205187672 3.5893551326063546 2.935045887367056 1 0 0
192 6 4 0.063 -2.137504676177866 2.9479275443889614 0.5068377461572621 1 0 0
196 6 4 0.063 -2.271412374971566 5.247226852534705 1.2804657987186476 1 0 0
236 6 4 0.063 -2.3394673993325537 3.8655549368973965 4.922757547693715 1 0 0
289 7 5 0.424 0.05190441301203608 3.8300728264077657 2.526598857048043 0 0 0
305 7 2 0.2503 0.25110178082232437 5.475766517246117 3.7143973470654212 0 0 0
307 7 4 0.063 -0.04707009015119379 4.925209280372262 4.621845128000238 0 0 0
312 7 7 -0.68 -0.3036021085978815 4.739592967874159 2.5172697997483593 0 0 0
332 7 5 0.424 0.16607114516742172 5.313489650140616 0.8191662003341369 0 0 0
52 1 4 0.063 -0.4586136007263719 -1.5535227944889902 4.10393283912705 0 0 0
240 6 4 0.063 -2.15758533762816 1.2589037304549011 6.537234543935943 1 0 0
70 2 4 0.063 2.4233565506822874 2.865289649654737 6.41657795655116 0 0 0
306 7 4 0.063 1.3490184469691795 5.624759680634304 3.734519537351252 0 0 0
1022 7 7 -0.68 0.5796958906704588 5.474886581462969 -0.06257495337438068 0 0 1
773 1 6 -0.5091 -0.03236855832019181 0.6712328841279831 -0.09193837155538323 0 0 1
81 1 5 0.424 1.2749888023133678 -1.9266236981925533 6.771827764638604 0 0 0
26 2 4 0.063 2.4976891663982093 3.9710501536202063 -0.11700143811573618 0 0 0
76 2 6 -0.5091 3.120558386696695 3.313255939001161 4.023956138166401 0 0 0
534 14 4 0.063 3.2763704407174883 -1.6945630262170583 1.108956345339832 0 1 0
35 2 6 -0.5091 3.314634264357177 4.855024454061055 2.3668001567478694 0 0 0
21 2 1 0.213 3.4672089913674826 2.446664506688829 1.8885516582954782 0 0 0
65 2 1 0.213 3.4354424028647967 5.146492868981075 5.672005890987143 0 0 0
42 2 5 0.424 3.9428212726549887 -0.2842128136915072 5.112522218756326 0 0 0
69 2 1 0.213 3.534874715727277 2.7939547101954583 6.363244382382855 0 0 0
19 2 3 0.243 3.83407504378978 3.650032968200752 2.7560035721193428 0 0 0
20 2 4 0.063 4.904299041194882 3.7752024598641327 3.064354398768265 0 0 0
23 2 1 0.213 3.9509705311773136 2.843156806312157 0.4826035231557696 0 0 0
24 2 4 0.063 5.045392035591739 2.826030759046265 0.6137066887360793 0 0 0
27 2 1 0.213 3.9228452113374654 5.268324694418623 1.1271394452224832 0 0 0
28 2 4 0.063 5.00863122776775 5.328356271270587 1.2893767547187307 0 0 0
32 2 7 -0.68 3.905310187159161 1.1425776490826878 2.3752126916824947 0 0 0
67 2 1 0.213 3.8287901462160185 3.755533094245295 5.241538580539568 0 0 0
68 2 4 0.063 4.962296468432627 3.847042694240754 5.107316026911492 0 0 0
71 2 2 0.2503 3.9383129849524448 1.31089060727792 6.192612549491202 0 0 0
78 2 7 -0.68 3.813972709586608 0.673448468603568 4.905535665349865 0 0 0
83 2 5 0.424 3.6134157854056674 1.1702429975463025 3.317953152606936 0 0 0
86 3 4 0.063 9.195230637502233 -0.27085902076173607 0.49604213293505306 0 0 0
106 4 4 0.063 9.841567462947419 2.4255468403319647 1.683183610797946 0 0 0
119 4 6 -0.5091 10.650483499124835 4.903376040701393 2.307064490416043 0 0 0
122 3 5 0.424 7.257457948344149 2.821770455224925 6.048499095881904 0 0 0
123 3 5 0.424 7.189120418510928 1.5024106870555016 1.5555021182570814 0 0 0
127 3 3 0.243 7.673198424973725 0.12174111420404055 5.74555522091092 0 0 0
128 3 4 0.063 6.62258269327279 -0.1289711605016497 5.949409228868591 0 0 0
129 3 1 0.213 7.654837861540276 1.3971986376510799 4.793977596440512 0 0 0
130 3 4 0.063 8.68388403019918 1.775842796354505 4.761430129278331 0 0 0
131 3 1 0.213 7.284954728569046 1.0487884668534968 3.3240461999792075 0 0 0
132 3 4 0.063 6.206114365122787 0.8663867185649075 3.4215054279762196 0 0 0
133 3 1 0.213 7.951217068078995 -0.293312118901643 2.8563050968745722 0 0 0
134 3 4 0.063 9.03338805334202 -0.17058913220751437 2.7130631630378965 0 0 0
135 3 1 0.213 7.840200802900064 -1.4372634633082049 3.917179382776527 0 0 0
136 3 4 0.063 6.770030979729503 -1.6761558167543256 4.0400039453606045 0 0 0
140 3 7 -0.68 6.800851534532537 2.472496350823312 5.252991184675445 0 0 0
141 3 7 -0.68 7.4853709326820095 2.06009444084376 2.317244202093518 0 0 0
142 3 6 -0.5091 7.468637465480912 -0.7863680226264937 1.628544011251838 0 0 0
143 3 6 -0.5091 8.416867104858307 -0.9652696749743988 5.174239606175227 0 0 0
149 4 1 0.213 10.582836924689266 5.219800470758424 5.812846742676609 0 0 0
150 4 4 0.063 9.473470674641021 5.205998743790263 5.856468446233589 0 0 0
153 4 1 0.213 10.687092947683976 2.783532592120398 6.3802030241035155 0 0 0
160 4 6 -0.5091 10.445101921625112 3.3129617724204143 4.087118448370686 0 0 0
373 9 5 0.424 7.219578691310813 3.7941326490352214 2.73663720444604 0 0 0
389 9 2 0.2503 7.577790315209702 5.546766953920174 3.7050355394450682 0 0 0
391 9 4 0.063 7.564352795664588 4.936025079373306 4.634825474557352 0 0 0
396 9 7 -0.68 7.023895513492445 4.746996605593016 2.591462073623679 0 0 0
416 9 5 0.424 7.35828046136241 5.442838223768561 0.8789475485811526 0 0 0
533 14 2 0.2503 4.35984499449189 -1.5493867719912182 0.9307741061707568 0 1 0
105 4 1 0.213 10.920993926129812 2.491431348122898 1.8071559355869093 0 0 0
535 14 4 0.063 4.788288769768098 -0.9264093820279833 1.7283633737506774 0 1 0
618 16 4 0.063 10.570344771321432 -1.6300053903569651 1.2813296810443473 0 1 0
154 4 4 0.063 9.584271043151803 2.7170891803886175 6.553233823354446 0 0 0
85 3 3 0.243 8.084796718817337 -0.477287087471403 0.3860975882035398 0 0 0
390 9 4 0.063 8.626005475612027 5.8871961156447945 3.5440012657707984 0 0 0
151 4 1 0.213 11.02877462591551 3.8044511502547085 5.30424660403153 0 0 0
103 4 3 0.243 11.14945168692216 3.678041334757257 2.878030969908888 0 0 0
72 2 4 0.063 4.997611268699751 1.4563076772000634 6.378252329965275 0 0 0
579 14 7 -0.68 4.655779173029938 -1.9013121180516852 4.816420607363491 0 1 0
25 2 1 0.213 3.5542687890807825 4.235038723067225 0.026896998287612967 0 0 0
162 4 7 -0.68 11.098845448251016 0.7167510330282942 4.965743645196024 0 0 0
40 2 5 0.424 3.190311949496839 5.823816078790516 3.859704469831005 0 0 0
1106 9 7 -0.68 7.666377021463852 5.504598984740311 -0.047672518144848436 0 0 1
109 4 1 0.213 10.942296661758636 4.270245961780141 0.04802156218791473 0 0 0
124 4 5 0.424 10.700074256051273 5.676546147919013 3.962939897579944 0 0 0
857 3 6 -0.5091 7.319667225176721 0.6466703865815444 -0.06347862927978432 0 0 1
167 4 5 0.424 11.111442156953773 1.2394257165685607 3.276484305451072 0 0 0
111 4 1 0.213 11.248502150698727 5.26190476917076 1.122963320932499 0 0 0
1344 14 5 0.424 4.313987152570221 0.057711154504398454 -0.12291630264182106 0 1 1
126 4 5 0.424 11.151960749699724 -0.21333574260980037 5.261226645628905 0 0 0
116 4 7 -0.68 11.24424367758727 1.1436944976990615 2.31023716158041 0 0 0
110 4 4 0.063 9.884621186054432 4.013000682637224 -0.1383095508944113 0 0 0
703 18 4 0.063 19.264036056646745 -0.8461635985640461 1.8158515567455031 0 1 0
155 4 2 0.2503 11.372777382410051 1.3698752096364641 6.179236886558743 0 0 0
107 4 1 0.213 11.408033314349838 2.8233979507796185 0.45264443644702423 0 0 0
747 18 7 -0.68 19.174798639167463 -1.987425427072742 4.7810977228253355 0 1 0
195 6 1 0.213 18.4615544193383 5.3261257207712065 1.1161386796552146 0 0 0
617 16 2 0.2503 11.650559886243457 -1.544230767080333 0.9942425813147127 0 1 0
239 6 2 0.2503 18.597140122895212 1.3558513093492657 6.185070736539674 0 0 0
200 6 7 -0.68 18.57209617098647 1.2965776379793517 2.250032911746295 0 0 0
191 6 1 0.213 18.541016636986214 2.8543638892096004 0.46128517570114935 0 0 0
235 6 1 0.213 18.422120139262212 3.8612058015950215 5.191855985527251 0 0 0
619 16 4 0.063 12.205782305315967 -0.9561907650374635 1.7492796977426872 0 1 0
210 6 5 0.424 18.49812358853827 -0.2206666758201239 5.054814355819954 0 0 0
251 6 5 0.424 18.287133226459574 1.4266626967056144 3.188747599210991 0 0 0
246 6 7 -0.68 18.29637928789417 0.7329256721224566 4.929678175891763 0 0 0
104 4 4 0.063 12.187673865355796 3.9418564942625265 3.223103685335165 0 0 0
108 4 4 0.063 12.477902772732337 2.871115747771289 0.5570868688568699 0 0 0
112 4 4 0.063 12.330395372426901 5.316197160681064 1.3474915412138695 0 0 0
152 4 4 0.063 12.089383470324101 3.772375043979056 5.163681114115959 0 0 0
169 5 3 0.243 15.267916550277794 -0.4015891322932681 0.4347771388062298 0 0 0
170 5 4 0.063 16.34131982609692 -0.26707333477635387 0.5984984478089023 0 0 0
187 6 3 0.243 18.36142638556347 3.698768380453463 2.8976078606549334 0 0 0
189 6 1 0.213 18.042947713233914 2.5088224303392312 1.8263287055433144 0 0 0
190 6 4 0.063 16.972126364774894 2.341407007143345 1.6653147016778604 0 0 0
203 6 6 -0.5091 17.937799337057406 4.887118090549582 2.3505265908329904 0 0 0
206 5 5 0.424 14.420646453935307 2.7731176916409863 6.098777561996217 0 0 0
207 5 5 0.424 14.201924263903427 1.6812916344795221 1.5871093743962006 0 0 0
211 5 3 0.243 14.958578658676783 0.27719821771729025 5.644003597151278 0 0 0
212 5 4 0.063 13.898574894422042 -0.015532784436111946 5.880693897961668 0 0 0
213 5 1 0.213 15.069840818029528 1.5155607588443676 4.703927745254608 0 0 0
214 5 4 0.063 16.115159814556833 1.8547214620610357 4.713590076303382 0 0 0
215 5 1 0.213 14.45788786257871 1.1120764115427137 3.3164995930013963 0 0 0
216 5 4 0.063 13.395867575504681 0.9034478294887638 3.5848677556201234 0 0 0
217 5 1 0.213 15.224050021873124 -0.2252661363391122 2.8169704278634784 0 0 0
218 5 4 0.063 16.330409820666127 -0.04728400681968381 2.750700502624412 0 0 0
219 5 1 0.213 15.111605106464252 -1.3405640442235884 3.9351186624488577 0 0 0
220 5 4 0.063 14.007069781862336 -1.5044648336268953 3.935221100489726 0 0 0
224 5 7 -0.68 14.18687180950313 2.5167962360697134 5.186643594660076 0 0 0
225 5 7 -0.68 14.568620158238348 2.141074722681836 2.373773864325594 0 0 0
226 5 6 -0.5091 14.632679616110172 -0.7583133156192403 1.6076189255241167 0 0 0
227 5 6 -0.5091 15.691495509824245 -0.8775441287804033 5.1754409249426905 0 0 0
233 6 1 0.213 17.979249062343285 5.298327292387915 5.765122803108559 0 0 0
234 6 4 0.063 16.863827227375502 5.290713919215132 5.824188145498165 0 0 0
237 6 1 0.213 18.09228427009068 2.81483376626924 6.369128669449429 0 0 0
244 6 6 -0.5091 17.648914832432766 3.4762434754192606 4.058535872506111 0 0 0
457 11 5 0.424 14.651189831175389 3.951522962707708 2.5506398717159007 0 0 0
473 11 2 0.2503 14.801899904895313 5.5161247801672655 3.7107270876788965 0 0 0
475 11 4 0.063 14.57748280637813 5.008329210968797 4.667403465865079 0 0 0
480 11 7 -0.68 14.20076269018609 4.8271793384351325 2.5860011599259476 0 0 0
500 11 5 0.424 14.908833989303586 5.459133931344796 0.8585501776590181 0 0 0
701 18 2 0.2503 18.84951677578747 -1.4482398120746969 0.9689382633927102 0 1 0
474 11 4 0.063 15.876939584570701 5.753803217349123 3.608088999145939 0 0 0
156 4 4 0.063 12.404973495261617 1.6062499065706581 6.084672825082789 0 0 0
702 18 4 0.063 17.748976832880224 -1.4301788802025044 1.0626393159288359 0 1 0
238 6 4 0.063 16.99145033049023 2.8434025838734813 6.53956561608625 0 0 0
193 6 1 0.213 18.14466034453828 4.223183981465741 -0.008623037597422112 0 0 0
663 16 7 -0.68 12.005898960563119 -1.9278653442157079 4.774091575245918 0 1 0
208 6 5 0.424 18.02639368032198 5.853033038272544 3.8932729991397483 0 0 0
1190 11 7 -0.68 15.124413614293859 5.522844462677168 -0.09569765714242237 0 0 1
941 5 6 -0.5091 14.537286653227154 0.7282643379041871 -0.04379914820544964 0 0 1
1428 16 5 0.424 11.771645386181222 0.08531120533864023 -0.13151817990862952 0 1 1
30 2 4 0.063 2.27236714530281 6.6113333662836204 1.0925048975765301 0 0 0
253 7 3 0.243 -0.16364745023755844 7.789445221120754 0.45629268641065923 0 0 0
254 7 4 0.063 0.9315614575562452 7.935373235431943 0.5626669436831823 0 0 0
274 8 4 0.063 1.4755144179346051 10.835212254868662 1.9908482153964395 0 0 0
287 8 6 -0.5091 2.374579821178937 13.054421412494133 2.430141969976395 0 0 0
290 7 5 0.424 -1.2023952582725634 10.782611045983048 6.111275981006701 0 0 0
291 7 5 0.424 -1.0804541689109928 10.000517162885412 1.4918720951972466 0 0 0
295 7 3 0.243 -0.6189852277170202 8.435484723595799 5.610534549333285 0 0 0
296 7 4 0.063 -1.627137071355066 8.012786399594217 5.794786930713409 0 0 0
297 7 1 0.213 -0.6576471783531781 9.650704970749334 4.687701646273692 0 0 0
298 7 4 0.063 0.40862766721384247 9.904943782614403 4.739802550451135 0 0 0
299 7 1 0.213 -1.0606492143627853 9.232144546141713 3.2739597359101524 0 0 0
300 7 4 0.063 -2.1134397590670906 8.906724425899013 3.3382558835109504 0 0 0
301 7 1 0.213 -0.2968229802832365 7.916176503960985 2.8258167644724037 0 0 0
302 7 4 0.063 0.7851872616679412 8.167459035000322 2.659132308080683 0 0 0
303 7 1 0.213 -0.43678745488417126 6.852521069790365 3.964090030948838 0 0 0
304 7 4 0.063 -1.507729618943812 6.570852321704676 4.055463079804911 0 0 0
308 7 7 -0.68 -1.4789340878321202 10.754491484295647 5.167597799555173 0 0 0
309 7 7 -0.68 -0.7745768301495117 10.275010251541898 2.3826211432492483 0 0 0
310 7 6 -0.5091 -0.8670786848540029 7.385843254012805 1.6543567651988833 0 0 0
311 7 6 -0.5091 0.11368487181712128 7.311986584695353 5.202986191853525 0 0 0
317 8 1 0.213 2.518079074758843 13.400770240539284 5.6873420120331435 0 0 0
318 8 4 0.063 1.4197418251116272 13.32078260602757 5.663229507917967 0 0 0
321 8 1 0.213 2.546303309239507 11.035410388848561 6.396013920342838 0 0 0
328 8 6 -0.5091 2.052061581795508 11.698684543045294 4.129025217746177 0 0 0
440 12 4 0.063 -3.3227517383296097 11.80828618726749 3.0104833473884223 1 0 0
448 12 4 0.063 -3.1144933277945874 13.46003207804558 1.1791433699145217 1 0 0
488 12 4 0.063 -3.354874103110732 12.258493932772904 5.177552800872278 1 0 0
541 13 5 0.424 -0.7962675587340236 12.106359003295891 2.592574122828674 0 0 0
557 13 2 0.2503 -0.7076438432345429 13.586032690907334 3.7389529097053913 0 0 0
559 13 4 0.063 -0.8487145020382723 13.152573916084865 4.748755525051935 0 0 0