LAMMPS data file via write_data, version 29 Aug 2024, timestep = 1000, units = real

1937 atoms
3 atom types

-12.606610445808688 12.606610445808688 xlo xhi
-13.757294888825081 13.757294888825081 ylo yhi
-13.451514783702956 13.451514783702956 zlo zhi

Masses

1 12
2 1.008
3 15.999

Atoms # charge

49 1 -0.003210348917653743 -10.429277954716772 -7.479164675378577 -13.106297403970247 -3 4 -8
51 1 0.001182698753049462 -8.924856685778241 -7.441222911759291 -13.160716564405286 -3 4 -7
50 1 -0.001140964610823744 -10.326444454397114 -9.711279027572704 -12.730240077302875 -3 4 -8
12 1 0.001700428507547355 -6.592235516279889 -10.216365413252158 -12.995832702150391 -4 4 -8
48 1 -0.001947228829194587 -10.65662759656998 -8.52745665513315 -12.119985038272794 -3 4 -8
5 1 -0.002218050348112057 -10.474471850171732 -10.800555891542743 -11.823299169543143 -3 4 -7
1 1 -0.001626147800584598 -12.145876144617459 -12.542060638465522 -12.632916653566202 -3 6 -8
7 1 0.001562072074195061 -9.568653522469099 -11.873085960236594 -11.366022657220562 -3 4 -7
47 1 -0.002805766425324565 -10.891029076785916 -8.605296444877132 -10.693764291999067 -3 4 -8
4 1 -0.002229481183716769 -11.148449619883293 -10.031227920507646 -10.746074219270403 -3 4 -7
53 1 0.0003697424111343099 -7.1620205662394145 -9.724453461294125 -10.399356182554016 -3 5 -8
9 1 0.0007205852994869415 -8.686703699321674 -11.733362172749246 -10.24207246692548 -3 5 -8
2 1 -0.0005731461587279024 -11.963773647441798 -10.444970111047407 -9.652785116580468 -3 4 -7
10 1 -0.00025689035468697 -8.046064393800908 -10.519702775363843 -9.601079657717847 -3 5 -8
57 1 -0.0008971426517183079 -6.570660227632371 -8.69981320755815 -9.546054436945013 -3 5 -8
8 1 0.0001358099397537425 -8.667053786886294 -13.020764198740162 -9.587285086388622 -3 5 -8
46 1 -0.002377897667990153 -11.400779295751647 -8.028304415340148 -9.439318331266357 -3 5 -8
6 1 0.0001370375256052863 -10.289349722453478 -13.160439069122175 -11.169235911918824 -3 5 -8
374 1 -0.002869086299761944 -12.025916393063723 -9.211873227462839 -8.848077909754931 -3 5 -8
378 1 -0.002197870794593923 -10.806830344877746 -7.0028255120066865 -8.587133680672821 -4 5 -8
384 1 -0.0009133652198315828 -7.181700150282525 -8.833984131247007 -8.273277555257689 -3 5 -8
350 1 -0.001091853748734412 -8.023684329048692 -10.119392138544757 -8.205834983585776 -3 5 -8
349 1 0.0005081006675548769 -8.189449300537774 -13.133101714848749 -8.172994092179932 -3 5 -8
11 1 0.0003257274778970635 -6.487005103619345 -13.136189137696586 -10.751227738985943 -3 5 -8
13 1 0.0005269395831640107 -6.4901517367344805 -11.927415057845788 -11.144503832211479 -4 4 -8
385 1 -0.002219441536776376 -6.930092995421708 -7.896271926352278 -7.179102832130082 -3 5 -8
348 1 -0.001430402240814133 -8.77444950635678 -10.795964937265389 -7.156844911204662 -3 5 -8
379 1 -0.003757925829499065 -10.378042478835965 -7.264219880441844 -7.1857463718551156 -4 5 -8
347 1 -0.000741809105655411 -8.993086644679156 -12.259773719718998 -7.201977575460032 -3 5 -8
341 1 0.0004612348221829411 -12.238239469419346 -11.790371169251923 -7.154481058857712 -4 5 -8
3 1 -0.001342948345480861 -11.553333693999893 -13.53912914535942 -11.698077632653744 -3 5 -7
14 1 0.0013829569475792 -6.549332620771338 -10.544611279031916 -11.527676105741811 -3 5 -8
419 1 -0.002422811984381254 -12.54948033291171 -8.132463478432376 -6.899386785747083 -3 5 -8
15 1 -0.0004473813560276381 -3.3035383759227894 -10.159457899706021 -12.770327816424874 -3 5 -8
61 1 0.0008588089882716685 -3.4293763691318784 -8.866277326925752 -12.32563413905487 -3 4 -7
21 1 0.0005425717336333229 -1.130400768064323 -11.385755265855195 -12.237741042958808 -4 5 -7
18 1 -7.706082862339592e-05 -2.3779702253606487 -10.690996513691756 -11.867344187174552 -4 5 -8
64 1 0.000251819618938786 -3.1748371055129567 -8.824412733295055 -10.933577101324603 -4 4 -8
16 1 0.0007124126454524926 -2.5969688477273607 -10.087607850649352 -10.608595857443001 -4 4 -8
63 1 0.0003005671357544284 -3.455215683041713 -7.494691736380413 -10.364229296159557 -4 5 -8
59 1 -0.0012820507142953 -6.103184837183007 -7.312585620465753 -10.119600504696235 -3 4 -8
22 1 0.001115428743657053 -0.6683915967994256 -13.052341455789147 -10.577649889593001 -4 5 -8
19 1 0.0006409247236747288 -2.3315977926704186 -10.780665516529421 -9.407497051996383 -4 5 -8
17 1 0.0005175686941677644 -2.4756471427979694 -12.160463039727535 -9.34601465686923 -4 5 -8
20 1 0.0007168674275750304 -2.1822502504593864 -13.042479428927644 -10.470323785733855 -4 6 -9
23 1 -0.0008648649312214055 -0.19888438551066656 -11.735894464109894 -11.147504182916919 -4 5 -7
354 1 0.0001341132026413411 -2.2412243793445796 -10.083930411355928 -8.152677444759572 -4 5 -8
353 1 0.0004330214447952722 -2.4847578516114677 -12.815603752056345 -8.059610778183647 -4 5 -8
390 1 -0.001811546131757262 -3.0907191142213755 -9.09996637738589 -7.880186696080383 -4 5 -8
387 1 -0.0005775982684874392 -4.514636863444222 -7.032207536683691 -7.709829212061907 -4 5 -8
388 1 -0.0002365897415198409 -3.800183798745884 -8.195833100634133 -7.721441566114257 -4 5 -8
357 1 -0.0001716112504816444 -1.632472919289981 -10.805422281585209 -7.07283965318972 -3 5 -8
355 1 0.000834756822100706 -1.855102762502522 -12.182671978189045 -7.02569007742252 -4 5 -8
60 1 -0.0003305568071171328 -4.747859484702183 -6.942454410623282 -10.740476161898428 -3 4 -8
62 1 0.0004383057982642082 -3.589275029700202 -7.669303442612541 -13.17483687210364 -4 4 -7
395 1 -0.000515284787476613 -0.0966019276632295 -8.997308474817416 -7.1859748807546024 -4 5 -7
68 1 0.0006269715251667682 -1.116731130940419 -6.80780117031772 -12.392126271756563 -4 5 -7
446 1 -0.0006006942441033596 -0.05622903452677441 -2.166496620998652 -7.239323182659058 -4 4 -8
837 1 0.0008739007860645055 -0.030158031436426924 -1.3323502981057125 -0.19334806122100012 -4 4 -8
56 1 -8.543755496994918e-05 -6.7370852985361225 -6.4008918848600365 -13.122398268612422 -3 4 -8
52 1 0.001308498185573184 -8.135933882141941 -6.382459517851471 -12.705597588055657 -3 4 -8
55 1 -0.002531713539597837 -6.913870050009831 -6.273550863862098 -10.382511720614414 -3 4 -8
88 1 0.01803994333143987 -12.439764930942141 -5.775922854562948 -12.113778833943158 -3 4 -8
91 1 -0.005760463960430118 -11.073822006221095 -5.900060937266171 -12.709338071011842 -3 5 -8
99 1 -0.002451644315602432 -8.712681514631614 -5.631161854852515 -11.607511792327106 -3 4 -7
98 1 0.03455340848820462 -9.617098283442528 -2.73380345565816 -13.337649717005707 -4 4 -8
142 1 0.004156515184265571 -8.622168229559925 -0.8145120921304301 -12.104791677419986 -4 4 -7
97 1 0.01086458475214028 -9.689145325290694 -3.3318534190693008 -11.932007602698112 -3 5 -8
95 1 0.01030325278119 -10.075846729706448 -5.050803036677307 -11.750551894789318 -3 5 -8
100 1 -0.006020028176855992 -8.222352323171517 -2.9772843556816593 -11.329180947345307 -3 5 -8
145 1 0.0002862600974613792 -7.846159618894079 -1.6083370076271724 -11.168526526559985 -3 4 -7
102 1 -0.0006420849977745776 -7.131636389692316 -3.915253490704961 -11.243244319024095 -3 4 -7
89 1 -0.00130413508432841 -12.220792117927184 -5.510902290973396 -10.72177701014061 -3 4 -8
93 1 0.02991362916318239 -10.420493233146836 -2.6798816301166077 -10.740449247440393 -3 5 -8
90 1 -0.05057142481217479 -11.850431313397882 -2.647217603397939 -10.540672439694331 -3 5 -8
101 1 -0.001687592269703039 -7.690714807054175 -5.205723143625564 -10.633042758449784 -3 4 -8
92 1 0.001838078244856076 -10.7921415410601 -5.288539841381267 -10.480577640006167 -3 4 -8
148 1 -0.0003057394980331071 -6.765572986729426 -1.0009213804711816 -10.111939667190455 -3 4 -7
96 1 -0.005491253997810124 -9.72345544431965 -2.3597388650995867 -9.437339985216308 -3 5 -8
94 1 -0.000658266056603421 -10.317252530788902 -5.713145766072348 -9.141546389255463 -3 4 -8
141 1 -0.0001907979628756884 -9.173003562421343 -1.0229129837970046 -8.941269574392845 -3 4 -7
421 1 0.005163516063731541 -12.247430514000778 -2.8754793160444017 -8.875068425905916 -3 4 -8
146 1 -0.002556102500507577 -7.727557725317514 -0.8747404900158475 -8.840978008127781 -3 4 -7
426 1 0.0004397180975432135 -9.533341268331611 -3.3540203640045476 -8.386875051066149 -3 5 -8
427 1 -0.000809925153352032 -9.392592644101196 -4.856283927076079 -8.406605023626188 -3 4 -7
483 1 -0.001456389495463416 -11.52628017428032 -0.1868176482823749 -8.099231364977015 -3 4 -7
491 1 -0.0008963189749391677 -7.08900196290167 -1.1076946992924004 -7.545353330987464 -3 5 -8
423 1 -0.001090575978465118 -11.41471400835412 -2.501285842553088 -7.645231351679421 -3 4 -8
432 1 -0.001411539013855233 -6.715058964641632 -2.5442922103696866 -7.28958331355371 -3 3 -8
428 1 -0.001291984268446771 -8.71988572582019 -5.398789222322927 -7.26447970020255 -3 4 -7
482 1 0.003385575271640377 -11.855871963143466 -1.2044634605221152 -7.094847156466064 -3 4 -8
424 1 -0.0006161154330402291 -10.148558317303921 -2.836605803276395 -7.076947943772572 -3 4 -7
430 1 0.02527154082325256 -7.437135120541201 -4.833270974893663 -6.665282820736965 -3 4 -8
785 1 -0.04322945879473909 -4.304842406631602 -5.911697095489876 -4.3939282096997285 -4 5 -8
66 1 0.0004819561268476595 -2.449422440926041 -6.839629335654489 -13.02428455213255 -4 5 -7
386 1 0.005321059689556974 -5.945016539368333 -6.788148457205941 -7.384776172960297 -3 4 -8
103 1 -0.001205690100920937 -6.259053013680816 -4.043084420289766 -12.403100336406798 -3 4 -8
69 1 0.001283495505705223 -0.6560937007129084 -6.73867836747923 -10.998829257725244 -4 5 -7
65 1 -0.0004379192910207962 -2.60267326070913 -6.670937023141466 -9.443981152796775 -4 5 -8
116 1 4.503694240209563e-05 -0.28174515597426186 -2.445358932698767 -11.912620329455887 -3 3 -8
107 1 -0.0005825148054718742 -4.694995459636572 -5.929217624189159 -11.799577065146803 -3 4 -8
104 1 -0.0009306308565963806 -5.778573558832553 -5.4453048933071635 -12.62326561579589 -3 4 -8
161 1 0.0008675465533233423 -0.12089316986538279 -0.48810748734546117 -10.592733394562938 -4 4 -8
112 1 0.000934514487599538 -2.105804865413985 -3.5502888311812875 -13.161335409534031 -4 4 -8
111 1 0.001019875973776119 -2.9431291681980447 -4.651696399693767 -13.061917529391739 -4 5 -7
105 1 -0.0009135705718651271 -5.403059850554764 -2.877863908296394 -12.750318051324689 -3 4 -7
154 1 0.0003907398855798466 -4.27768647532676 -0.8481719925989193 -12.3320084033227 -3 4 -8
152 1 -0.0005086900791614404 -5.018875925416247 -1.9754164484435481 -11.657766011826105 -3 4 -8
114 1 0.001696504170180774 -1.4402020697840463 -3.2351895042319434 -11.950673577681899 -3 3 -8
109 1 4.743947225472472e-05 -3.6760778075471503 -4.814862326064338 -11.818012729118571 -3 4 -8
110 1 3.644362600810705e-05 -3.2912021238697946 -3.9837624470271837 -10.77940194973642 -3 4 -8
113 1 0.0009333795197098947 -1.9173455804001929 -3.7683733105379495 -10.684190082714192 -3 4 -8
151 1 -0.001662713446746004 -5.537142773437549 -1.879499488845294 -10.28342772081807 -3 4 -8
67 1 0.0007673698500765252 -1.389261824136785 -6.014684360057937 -9.903399359476524 -4 5 -8
115 1 0.0002669590793645087 -1.0922008331602324 -4.571807781335725 -9.727993128069102 -4 4 -8
108 1 -0.001214902653395859 -4.119185510340941 -3.8521177643283373 -9.63498834620776 -3 4 -8
106 1 -0.0009123404304494619 -5.026657317530741 -2.81892846745275 -9.31717790116966 -3 4 -7
437 1 0.0001163730152108355 -4.166601672570852 -4.848569185934835 -8.585823826200807 -4 4 -8
389 1 -0.0005993317558120551 -3.5929960280352624 -6.134231244860781 -8.49200724595085 -4 4 -8
434 1 -0.0007506736547592888 -5.767041293089463 -3.2236019989254867 -8.139924651379562 -3 3 -8
435 1 -0.001537605384302351 -5.3311292001055826 -4.492555385649862 -7.837894527069711 -3 4 -8
444 1 -0.0004836271098241016 -0.40143136840876537 -3.4509993251474196 -7.530669785699817 -3 3 -7
433 1 -5.59158159039938e-05 -6.19581473201961 -5.4110952172227105 -7.149787936153468 -3 4 -8
445 1 0.0008026382555629992 -0.23348216392311727 -3.74858202130938 -8.933589371764487 -4 4 -8
394 1 0.0001224475620136903 -0.3480812876860728 -6.605343231927939 -6.939375892408948 -3 3 -7
442 1 -0.001426501526739923 -1.206243944521093 -4.204242645129293 -6.671868246148429 -3 3 -8
667 1 -8.002124561705751e-05 -12.560246296974556 -11.563730083344188 -1.7098894249240466 -3 5 -8
343 1 -8.80844510371924e-05 -11.94109229432225 -10.425419651714547 -6.765821479646754 -4 5 -8
346 1 0.0005889957151267271 -9.470216872861483 -9.968071619666881 -6.1286381321047765 -4 5 -8
383 1 0.01077837485701831 -8.024004913820065 -7.536720935810299 -6.267420934375272 -3 5 -8
376 1 0.00108410063134212 -11.237727205878352 -8.060007906191203 -6.170783135279506 -3 5 -8
377 1 -0.001443435903458537 -10.867167257116327 -9.576248607885715 -6.2055693989604315 -4 5 -8
382 1 0.03488769500106344 -7.939077339018017 -8.282907693823287 -4.967662768892556 -3 5 -8
381 1 -0.006268610684400398 -8.523978915964072 -9.60244656174082 -5.002619419145324 -4 5 -8
375 1 -0.0006520011161674395 -11.605857865565056 -7.07815447989553 -4.715431298529154 -3 4 -8
345 1 -0.001918803008160719 -10.237463899203366 -12.655722294674934 -6.648942721815618 -3 5 -8
344 1 -6.780414883750599e-05 -11.590780560995173 -12.764657476313989 -6.198984464953965 -3 5 -7
675 1 0.002771234269309357 -7.710549260454789 -10.543713745113777 -4.2378194730386785 -4 5 -8
725 1 -0.02938534241142139 -6.811318657004655 -8.385625786309733 -3.998081137823755 -3 4 -8
715 1 -0.001672461125078403 -12.202229537873576 -8.043743155325839 -3.799425124011604 -3 4 -8
726 1 0.001760214887268664 -6.540933925808619 -9.794331601673132 -3.780446502410838 -4 5 -8
673 1 -0.00215030378724625 -8.088279937998042 -11.854445183601332 -3.670614994911727 -4 5 -8
351 1 -0.001422776580257655 -6.632659595054294 -12.86901620510462 -5.172374184157341 -3 5 -8
717 1 -0.002190613247696361 -11.203099775311712 -8.705118329225513 -2.93298898507968 -3 5 -8
720 1 0.005814667499510947 -10.067015356512094 -7.835027017151722 -2.8387749458666534 -3 5 -8
674 1 -0.001816947127723303 -7.918066884223202 -13.089237195797448 -4.461372820078079 -4 5 -8
676 1 0.001366781931391947 -7.548163357908224 -12.030355562802804 -2.346319333524624 -4 5 -8
716 1 -0.001188246633118444 -11.361861805255517 -9.57238415168925 -1.919786314844142 -3 5 -8
678 1 -0.01071168985034589 -6.974942512440656 -13.279281829167676 -1.8847973924389123 -4 5 -8
679 1 0.0004319792524841749 -6.872594309387055 -10.88986733431666 -1.73509492293703 -4 5 -8
669 1 -0.0006811051697295442 -10.802728043420643 -13.29305444901486 -2.487450104582326 -3 5 -8
668 1 -0.0004296072459803492 -11.131051241630344 -12.032981840454937 -1.8487899597285882 -3 5 -8
722 1 0.0003530080207099912 -9.337079826877384 -7.849175235674275 -1.5505186158895494 -3 4 -8
719 1 -0.0007209353326448689 -10.261939641193043 -9.927508363035408 -1.0452990854656878 -3 5 -8
342 1 0.0006944344935745604 -12.06720761522672 -13.458916925568646 -4.8958492453269695 -4 5 -8
670 1 -0.0008638929469040463 -10.124456244688764 -11.35213979064092 -1.0649574731435454 -3 5 -8
721 1 -0.0005192302110640715 -9.442166730826173 -8.855426773992393 -0.44734494860941965 -3 5 -8
677 1 -0.0003331023793075212 -6.937067718243737 -10.677507180027744 -0.33636506418537415 -3 5 -8
671 1 -0.001008817976622563 -9.39138488244947 -13.472944490775658 -0.2666814649687872 -3 5 -8
672 1 -0.0003180675884393684 -9.12832125482754 -12.077229097653035 -0.2295138234124945 -3 5 -8
714 1 -0.00174394402017905 -12.58599676455389 -10.147602672095502 -2.0469898684655945 -3 4 -8
690 1 0.0003980846914554657 -1.1053775582602032 -13.63585661884002 -0.8340656974986604 -4 5 -8
356 1 0.0003924449492104867 -1.570377658045631 -12.890112496265376 -5.836872300882898 -4 5 -8
393 1 -0.001201120083009875 -0.41622494878726 -7.7664503596094265 -6.140882738994488 -3 3 -8
359 1 -0.0002638535555644726 -0.3895894533771891 -10.292406407376285 -6.635400833695763 -4 5 -7
392 1 0.001371859194440488 -1.6860774390448903 -7.494575924252591 -5.348230479886075 -4 5 -8
358 1 0.0002555412841234936 -0.8140301863167512 -11.976041629259093 -4.9031672019581976 -4 5 -8
352 1 -0.002277657656591995 -5.382763810274823 -12.480729044647623 -4.457121509898439 -3 5 -8
735 1 -0.001215857466629066 -2.1657755761823108 -8.400103762769813 -4.359745617934628 -4 5 -8
731 1 -0.03943894455407068 -4.583015077272444 -7.319547879662941 -4.036449974654342 -4 5 -8
728 1 0.2224672296477797 -5.9738999412263665 -7.233592238504098 -3.7208386067966615 -3 4 -8
736 1 5.399640348968671e-05 -1.0357668407633067 -9.113275393369502 -3.674936398020659 -4 5 -8
733 1 0.009293541925586457 -3.501581661974667 -8.363664985524522 -3.798227160186382 -4 5 -8
692 1 0.0001202800399220626 -0.7201096316496454 -12.281809271677998 -3.466391752694136 -4 5 -8
682 1 -0.00234499250871828 -4.9962918004677555 -11.661781760048246 -3.2912983295474145 -3 5 -8
681 1 -0.002427984730361425 -5.716780376159939 -10.370358313932895 -2.5968145171394994 -4 5 -9
688 1 -0.0009078818686221735 -1.280395603358345 -10.063738186815279 -2.559512595226556 -4 5 -8
684 1 -0.001373818907672884 -4.310817075081923 -12.624558415677141 -2.5185900937539625 -4 5 -8
732 1 -0.002189981430388097 -3.554333238368022 -8.914746250586017 -2.441930164632039 -4 5 -8
691 1 -0.000281347196406035 -0.9012529712014956 -11.482996317305185 -2.3332335190002276 -4 5 -8
734 1 0.0001035409067388741 -2.381198527695224 -9.509560007692508 -1.808926358260507 -4 5 -8
729 1 -0.001225715639680023 -4.768260103354812 -9.444812331043526 -1.7845494059090292 -3 4 -8
689 1 -0.0008972645395295964 -1.3915671122202742 -12.272028099914117 -1.191150216975954 -4 5 -8
683 1 0.0007198949364803486 -4.683459488624527 -12.625978934429849 -1.1173978690637867 -4 5 -8
680 1 0.004740811166529399 -5.962318973614207 -13.236210527076674 -0.9572322245854075 -4 5 -8
686 1 -0.001511586420196678 -2.449710118413245 -10.17189308156885 -0.5088516343930181 -4 5 -8
687 1 -0.001763125633667607 -2.4935300553225908 -11.630776785570154 -0.615701340622687 -4 5 -8
730 1 0.001213638014307357 -4.667753674538573 -9.545430451302906 -0.394164617950878 -4 4 -8
685 1 -0.001784982160195181 -3.49542150491685 -12.474754715485226 -0.2993389081917801 -4 5 -8
380 1 0.009204682512960385 -9.136688770261964 -6.668196914177903 -6.729200982215498 -3 4 -7
718 1 0.0053323357927701 -10.474895929852124 -6.830494715619671 -3.805601033691433 -3 5 -8
723 1 0.01682494980868744 -8.674465911740462 -6.579996908406018 -1.4926336474770974 -3 5 -8
727 3 -0.4988729534976584 -6.672682576794817 -5.870887402980913 -3.724770774561893 -3 4 -8
480 1 -0.009474548310625816 -12.073571809976043 -1.0102161204613225 -5.717177926962106 -2 3 -8
490 1 -0.00175232163777846 -7.452192304024909 -0.37048352129715845 -6.316239194359179 -4 4 -8
431 1 0.003379881773622972 -7.401738230692494 -3.411966255871805 -6.356173655459529 -3 4 -8
425 1 -0.0007292617063843106 -9.626692827134514 -2.5980939992421703 -5.733751607723022 -3 4 -8
429 1 0.006750939738748064 -8.267830992543965 -2.8388797103530834 -5.286652121117875 -3 4 -8
481 1 -0.0008313203391531968 -11.832529604754116 -1.8197600215664274 -4.544556060445343 -4 4 -7
484 1 0.000468373468191766 -10.295627827432458 -2.102148307360803 -4.449370548662211 -4 4 -7
422 1 -0.00139164492179247 -12.055250222813681 -4.4305300300177795 -4.522062025218739 -3 5 -8
821 1 -0.001221007945755678 -9.567016367912082 -0.8479532583913532 -3.794197740233665 -3 4 -8
776 1 0.01656157208088512 -7.7794532007143955 -2.8978101577099977 -3.9255255876502773 -3 4 -8
768 1 0.001119712089158509 -10.83884602307834 -4.445196096370106 -3.857796166304757 -3 4 -8
816 1 0.01078884941474032 -12.29078696872747 -0.803201522624688 -3.3780654959715104 -3 4 -8
770 1 0.0115236286933465 -10.096081010426596 -5.565451615754771 -3.4357396031923546 -3 4 -8
769 1 -0.0006494806620173238 -10.37717809249123 -3.140785659528863 -3.254072835332815 -3 3 -8
773 1 -0.001415830136576616 -8.814882827117586 -3.0860931476917006 -2.7614444899128614 -3 3 -8
820 1 -0.0004640024219818659 -9.668480849283016 -0.6731502689239122 -2.341498866027605 -3 4 -8
772 1 0.02597304698540055 -9.141403449198318 -5.510829171658816 -2.385221851022605 -3 4 -8
766 1 -0.002157573120531824 -11.446968005186568 -2.7136371629545692 -2.1363953678452177 -3 4 -8
818 1 -0.003761863009377069 -11.304189668940117 -1.080759954665302 -2.1454792647680954 -3 4 -8
774 1 0.02428580595350687 -8.424656699610736 -4.425645456974902 -2.0859336905487176 -3 5 -8
823 1 -0.003387863170371416 -8.754504502553164 -1.8008258920412157 -1.9139682946843575 -3 4 -8
777 1 0.02509371495847139 -7.403353972114458 -4.789114332934293 -1.2173956233626129 -3 5 -8
817 1 -0.001062920750584777 -11.969606738620207 -0.5561783419750252 -0.95286252071622 -3 4 -8
767 1 -0.003571709411390945 -11.049462312107913 -3.0774403896138978 -0.7624016902699395 -3 4 -8
775 1 -0.00215925455691284 -8.558644881888384 -2.1093922614183676 -0.5128910349670655 -3 3 -8
724 1 0.003827892821435013 -7.704764683691621 -6.115625638741519 -0.6009006910104677 -3 5 -8
778 1 0.02977215127082535 -6.450542430670429 -2.9878241826574907 -3.4769681777382626 -3 4 -8
771 1 -0.002935794470235292 -9.694224922888637 -3.0093625146535707 -0.14738917518457129 -3 3 -8
438 1 -0.00878758725393777 -3.194246195403327 -3.9917562037845364 -5.3021172612441205 -4 4 -7
830 1 -0.0006389842508489306 -4.092161351548118 -0.9593558264495314 -2.4492298823863603 -3 4 -8
834 1 -0.001424961021306022 -2.502987710081939 -1.8187707946766771 -0.9293601137228347 -3 4 -8
391 1 0.0001921195041769824 -2.0693853012919394 -6.143058575103802 -5.540704295790543 -4 4 -7
832 1 -0.0008460186507806104 -2.7215412892567628 -0.7454437503308071 -2.002101561245958 -3 4 -8
786 1 -0.001204496377763251 -3.809207151210087 -3.856812888177666 -0.23724053217383378 -4 5 -8
436 1 0.004323929846573756 -4.311119231112192 -3.0564023193615313 -4.962284658971569 -4 4 -7
495 1 -0.0009581390491669242 -5.431503835447317 -0.7149627300648227 -4.594793710478225 -3 4 -8
443 1 -0.0007852132889577118 -1.223019629024357 -5.558878058216003 -6.546673812497527 -4 4 -7
501 1 -0.0001599847318669127 -0.8579506755419537 -0.10879487711142666 -5.7633943024012595 -3 3 -8
779 1 0.01126781844584939 -6.177174947261693 -4.044304825422152 -1.155222009928364 -3 4 -8
440 1 0.001767489606158485 -2.244963322290644 -3.377014000519182 -6.120531396606468 -3 3 -8
836 1 -9.229245546714046e-05 -0.3862927862557406 -0.037622200171941955 -2.8563446167613087 -4 5 -8
780 1 -0.001459956176976286 -5.901308858961917 -2.9212568247150354 -2.073280893248146 -4 5 -8
783 1 0.003082703913086973 -5.053274292055372 -4.592515293007736 -0.49701430618823217 -3 5 -8
441 1 -0.001532717538090336 -2.1148157786161974 -1.9820764329160436 -6.082570509130358 -3 3 -8
439 1 0.008410761311341795 -3.21470386375249 -5.401314198835493 -5.123903106109779 -4 4 -7
784 1 -0.000624019233474226 -4.694429733405964 -2.2101605782014353 -1.8959063702416845 -4 5 -8
500 1 -0.0008784087996806349 -0.9460485585719915 -1.345337552471067 -6.476573076846759 -3 3 -8
781 1 0.2318763211114948 -5.455802532397478 -5.1335948313965005 -4.220986402281277 -3 4 -8
498 1 -0.001073689897785002 -3.0136899751159714 -1.0794695471048499 -5.422924653067485 -3 3 -8
497 1 0.001002053360000924 -4.350129096740391 -1.587116397190476 -5.115634003793733 -4 4 -7
782 1 -0.04031733199645301 -5.467847616733906 -3.70342532362635 -4.354389052037245 -3 4 -8
829 1 -0.001067018421160491 -4.712714065348849 -0.10907368064551726 -3.461095688729614 -4 4 -7
787 1 -6.526535901739058e-05 -3.6546782737366303 -2.706644111872688 -1.024278955789578 -4 4 -7
1767 1 0.001235807121324147 -9.041715012133949 -1.416061585045787 -13.408807814492532 -4 4 -7
1012 1 -0.0008592146883526532 -8.022351703205752 -11.307013758468223 0.45930705621878687 -3 5 -8
1051 1 -0.0009577739453858793 -9.154724882816666 -8.759504627871138 0.9829149682823441 -3 5 -8
1054 1 -0.0001679962384344147 -8.197776243686718 -7.7199218400619385 1.4120467988658998 -4 5 -9
1013 1 -0.0004116875573888061 -7.84397538426271 -11.300636810052058 1.8777451697425978 -3 5 -8
1050 1 -0.002733031124507457 -9.739803093427653 -9.348494366570971 2.172482209464629 -3 5 -8
1005 1 -0.003160495111815161 -12.093865238280594 -10.235558343583275 2.281118708041621 -3 5 -8
1008 1 -0.002496253959496864 -10.726311482124492 -10.49092149438188 2.3591916693526596 -3 5 -8
1010 1 0.0003043528367412014 -8.892522713509797 -12.237640088505064 2.4371285756590257 -3 5 -8
1014 1 -0.0005355429230709773 -6.81050197989703 -10.527760206075724 2.6645632814019375 -3 5 -8
1009 1 -4.207768298598868e-05 -10.239227242983523 -11.823505357521718 2.754595105081057 -3 5 -8
1053 1 0.0006834854656299905 -8.155238507310976 -7.84450870777803 2.851580046388646 -4 5 -9
1052 1 -0.001861555488838644 -9.199933155890145 -8.76149010254036 3.370290529905434 -3 5 -8
1047 1 0.002790035428400211 -11.981759681277948 -7.484024905465453 3.592856486467044 -3 4 -8
1056 1 0.001071264291431551 -7.233774686583574 -7.126991624213784 3.7786477836744705 -3 5 -8
1007 1 -0.001598877680351982 -11.007813471327365 -12.967393333479162 3.3712836284712804 -3 5 -8
1311 1 -0.0005979631296589502 -11.556409605511309 -12.680339012837248 4.698502036406422 -3 5 -8
1356 1 -0.0005781271083472109 -9.48604669004045 -9.277924492569653 4.763667130864087 -3 5 -8
1353 1 -0.004720863289983435 -11.883166284058971 -8.306313385237882 4.757413789764728 -3 5 -8
1320 1 0.0009086393443905119 -7.101228430144885 -10.400109840986016 5.206557613064193 -3 3 -8
1355 1 -3.032838123295453e-05 -10.812611173204395 -9.019530010201992 5.394547578347284 -3 5 -8
1317 1 0.0003590767104860726 -8.50343713423048 -10.150178668090241 5.4433587847838485 -3 5 -8
1011 1 0.001882455083655026 -8.391310047283138 -13.550019172650243 1.9290745872098363 -3 5 -8
1312 1 -0.0002507236975541893 -11.370438473872165 -13.372261818899437 5.975655235818897 -3 5 -9
1323 1 0.0004504596456932249 -6.3207453749270215 -10.858372370022643 6.40182893327067 -3 3 -8
1006 1 -0.0003027646633898019 -12.036259907831118 -13.677085887505202 2.6166932401565592 -3 4 -8
1354 1 -0.007248770469495049 -11.268842638744768 -9.539051321826939 6.740064788109782 -3 5 -8
1316 1 -0.0008133653160094338 -9.106781242471465 -10.724545267466294 6.681139144208116 -3 5 -8
1015 1 -0.0004845991515377117 -6.264740401921388 -10.45342890286286 4.030926428536253 -3 5 -8
1016 1 -0.001462059507991567 -5.762150172826211 -10.164714422510858 0.3583558197047445 -3 5 -8
1061 1 -0.001368524086516134 -3.437617520815145 -9.760912142931216 0.4486799031266351 -4 4 -8
1024 1 -0.0001518297221864764 -0.6271749656588153 -10.390535881673745 1.5902942488194274 -3 5 -8
1017 1 -0.001708279593792786 -5.7050696998466535 -10.121670652691133 1.8035565947468193 -3 4 -8
1021 1 -0.001425431938242135 -3.1863328800530724 -9.973001165241355 1.8471125057552147 -4 4 -8
1022 1 -0.001085386924445732 -1.8340196088385827 -10.24049617870586 2.456202016043706 -3 5 -8
1019 1 -0.001538681127105129 -4.472783262181645 -9.964442632756953 2.613223838199799 -3 5 -8
1023 1 0.0003063895497032905 -1.4750157070342897 -10.167291302613497 3.8741778366079505 -4 5 -8
1018 1 -0.0006596244252636448 -4.7686124637107845 -10.223795035944976 3.9923212598576168 -4 5 -8
1328 1 -0.0006335456339352716 -3.7126485768308743 -10.535784852040472 5.009407556073748 -3 5 -8
1331 1 -0.0006404961523144813 -2.3126395429340363 -10.520590428292063 5.016065215679026 -3 5 -8
1374 1 0.001009349342952885 -0.18176125426488454 -9.630986425320003 4.480120660335091 -4 5 -8
1333 1 0.0007645892271942387 -0.16567170209271787 -11.370502781767938 6.0971427095322195 -3 4 -8
1332 1 -0.0001660545619791634 -1.6223676256527675 -11.32262476564578 6.089173477221065 -3 4 -8
1327 1 -0.0005745933653701421 -3.845025548093899 -11.375279329146181 6.208282987214668 -3 5 -8
1368 1 0.0002925706715910768 -2.83953391965081 -7.282627001565634 6.288311955110617 -4 5 -8
1058 1 0.0003814004375468708 -5.711213534608547 -7.180200988426175 3.5323900197344376 -3 5 -8
1370 1 0.0005406200590310287 -1.3927996808351129 -7.4721984680748585 6.460609882428729 -3 5 -8
1326 1 -0.00138360841828726 -5.223006480691437 -11.779927682417828 6.331382399582912 -3 5 -8
1366 1 0.0004994114005941533 -3.5589986734841013 -6.941291487721235 5.055230384168903 -3 5 -8
1364 1 -0.0002568624465683865 -5.014472928705354 -6.994003267364167 4.791623346310898 -3 5 -8
1020 1 0.002423144594084777 -3.150819781180866 -13.635328147141225 0.3233653005401642 -3 4 -8
1055 1 0.001485195384415612 -7.31462031461453 -6.839670243966311 0.6160932128527019 -4 5 -9
1048 1 -0.004116448609218486 -11.117172026648774 -6.600460957347027 2.9662001794368944 -4 5 -9
1358 1 0.0006162957502659147 -7.400907540223027 -6.422884573227893 4.996703288246843 -3 5 -8
1049 1 -0.002219804465250459 -9.921720391772459 -6.07243537519112 3.6885233020764137 -3 5 -8
1091 1 -0.002387799112784954 -11.366902485102946 -5.909952762886895 1.7587255987641566 -4 5 -9
1131 1 -0.0022513987167114 -11.133324159079967 -0.37211756411925023 0.21755172920622812 -3 4 -8
1089 1 0.0002189719059806014 -12.012370316758842 -3.378349827339955 0.288826913810599 -4 5 -7
1139 1 -0.0004023412822551677 -7.416767650352598 -1.7132154321955113 0.3452903120666502 -3 4 -8
1096 1 -0.003487919762016435 -9.37016160720527 -3.8723292571395493 0.8985350372507508 -3 4 -8
1132 1 -0.0009318909278535244 -11.095361347156027 -1.185574651086407 1.4140089102159497 -3 4 -8
1101 1 -0.001068651772831473 -7.198399327113423 -2.5539462719079467 1.545509352523549 -3 4 -8
1090 1 0.002773810161615875 -11.626490786880908 -2.56096525580581 1.4806667863984408 -3 5 -8
1098 1 -0.001738341263628746 -8.15265494779268 -3.629295436689439 1.6376656891230947 -3 4 -8
1094 1 -0.001437210468933628 -10.424360326397203 -4.646481615485605 1.8124273029840836 -3 4 -8
1141 1 -0.0004131245949972329 -6.691501373309348 -0.47433262027968937 0.2952986457068789 -3 5 -8
1133 1 -0.0006272418348852067 -10.023378182183421 -0.7289127164668496 2.3066644891609087 -3 4 -8
1092 1 0.003302848476575956 -11.178730947536314 -3.4769095699558434 2.557134740491664 -3 4 -8
1097 1 -0.002274346069378467 -9.312466999891907 -5.23555857244134 2.6711905088392047 -3 5 -8
1099 1 -0.001202347586165411 -8.095447831970672 -4.482435707938469 2.8517680523269053 -4 5 -9