LAMMPS data file via write_data, version 29 Aug 2024, timestep = 1000, units = real

2008 atoms
3 atom types

-14.424829256723957 14.424829256723957 xlo xhi
-13.028736132978228 13.028736132978228 ylo yhi
-13.053415011057275 13.053415011057275 zlo zhi

Masses

1 12
2 1.008
3 15.999

Atoms # charge

8 1 -0.03755991798433002 -10.66959767791005 -11.775182038587905 -10.321228584456826 2 -6 0
349 3 -0.5142568701164969 -9.64853257425823 -12.06356634330375 -7.999334492775786 2 -6 0
350 1 0.2543089482137927 -8.502225082883282 -11.57512547863043 -7.155927186319807 2 -6 0
6 1 0.01865695696922614 -12.024983256414407 -12.314926659382394 -9.933143174298918 2 -6 0
9 1 0.02092404171196179 -10.331882717681822 -11.510941746233238 -11.646487272770047 2 -6 0
10 1 0.2724061422468562 -9.685688279281273 -11.440270431818131 -9.375355182184872 2 -6 0
11 1 0.0573270486808844 -9.117251700052115 -10.881761827977403 -11.925654144119807 2 -6 0
343 1 0.0324350083855894 -12.264234404004332 -11.160215624064666 -6.947058259669104 2 -5 0
352 1 -0.04929157462943068 -7.687207455110151 -10.439530347644768 -7.624421181572057 2 -6 0
342 1 0.007814660992904657 -12.431111990718925 -10.459843918324495 -8.230995923216657 2 -6 0
13 1 -0.04704598557840192 -8.88956541250133 -10.304041573857003 -9.665656520971787 2 -6 0
4 1 -0.002407348676531917 -12.832366804125055 -11.186722048364281 -9.480658288016256 2 -6 0
12 1 -0.000580270630633057 -8.846909802546747 -9.883602555439357 -11.012826488794683 2 -6 0
341 1 0.01241756106065305 -12.797440992024764 -12.561778681065505 -6.837629335584592 2 -5 -1
14 1 0.04006090546757724 -8.032494046663732 -9.60609344340349 -8.771966194672206 2 -6 0
345 1 0.001673916709716783 -11.96080058105314 -9.079188904341457 -8.371663200162782 2 -6 0
64 1 0.0001904859689857291 -11.825580866297875 -8.733712982407322 -11.880653391094851 2 -6 0
346 1 0.008137701256718324 -11.317719206150226 -8.739601233133296 -7.227841133449859 2 -6 -1
5 1 0.0008723628706370327 -12.740503172995975 -9.5648466250779 -12.623750983884479 2 -6 0
69 1 -0.005863116293630427 -10.457830716772705 -8.696121229218994 -12.4913430095519 2 -6 0
72 1 -0.006101751430321798 -9.31472545662562 -8.639887649183402 -11.578256840147072 2 -6 0
75 1 -0.00678605007101658 -7.43748083767066 -8.300889196666478 -9.10132136463317 1 -5 0
62 1 -0.0008923641021453162 -12.700057227298778 -7.987328558276882 -9.385030339007846 2 -6 0
65 1 0.000222076885252085 -11.939248583374804 -7.8348887849530575 -10.741242221131213 2 -5 0
61 1 -0.001668320440925877 -14.05499542374282 -8.471141617537729 -9.395266901556184 2 -6 0
74 1 -0.001061144526486774 -7.595869162915914 -7.274938541017059 -10.16576707926248 1 -5 0
73 1 -0.00309332244380451 -8.77613220704818 -7.362483311808439 -11.129525874665344 2 -6 0
400 1 0.0003541416520480203 -13.601678126923066 -7.34707690426354 -6.641222471814473 2 -6 0
7 1 -0.001545969302844997 -11.239530304942894 -11.728310931647862 -12.823106035418116 2 -6 0
2 1 7.269090906017808e-05 -14.17126299219974 -9.22388089430167 -12.625073605645365 2 -6 0
3 1 -0.002898341414528716 -14.092327497349718 -10.862225107206065 -10.132387760177894 2 -5 0
15 3 -0.5068831629161509 -7.946463919649491 -13.01430553173614 -11.550979674261342 2 -6 0
1 1 -0.001205173743209189 -14.388692450168428 -9.445806910757213 -10.266913949224069 2 -6 0
67 1 -0.001197347202732235 -11.115822559035188 -6.667976424088551 -10.605745051948086 2 -6 0
63 1 -0.001196500953218514 -12.58886103230561 -6.539705104306419 -8.863910701794078 2 -6 0
354 1 0.007726571822462719 -6.565449694299516 -10.140934524856657 -6.812148894171086 1 -5 0
17 1 0.01076268742768011 -5.944973817017349 -10.521802139887612 -12.377110469832244 2 -5 0
20 1 0.03759600193706718 -4.627525862414656 -12.532142092246566 -11.616029884132882 2 -5 0
21 1 0.004968152975333755 -4.501929033479648 -12.069549264666525 -10.240368121475925 2 -5 0
22 1 0.0002657699844062812 -4.283142686949892 -12.914780871912697 -9.124514077968408 2 -5 0
361 1 -0.01299844692732049 -3.1924468338651355 -12.639910189684365 -6.776272923854228 1 -5 -1
366 1 -0.004743795253353712 -0.7633504451784869 -12.486229381678365 -7.229342299962704 1 -6 0
358 1 -0.002035547184348167 -3.8386795417508672 -12.108940361919219 -8.056517805901711 2 -5 0
25 1 -0.004091257590654086 -3.64236263870734 -10.842011601049151 -8.637706872313725 1 -6 0
23 1 0.002333002471872805 -4.05783104642528 -10.784372592652367 -10.031932078342285 1 -6 0
24 1 0.003987676195303207 -4.165481001201929 -9.590826931882686 -10.855302094718128 1 -6 0
360 1 -0.001696842699898079 -3.4657132762505594 -9.614684340240395 -7.994030443209235 1 -6 0
27 1 0.004382993775120646 -0.8067641492539366 -9.622456864810204 -11.741874979382233 2 -5 0
19 1 0.004257550217173511 -5.021594806372596 -9.42417992533039 -12.032657116475317 2 -5 0
357 1 -0.001712008108446444 -4.340198995741874 -9.224702970940406 -7.048243255277837 1 -6 0
26 1 0.003535166378906825 -1.9064880393914176 -9.09182354612952 -11.248677546788064 2 -5 0
356 1 -0.0002245747537455642 -5.808881005610168 -8.826390988142185 -7.149989515743933 1 -5 0
416 1 -0.004502592474758413 -2.5108814351991384 -8.690955820796109 -8.38911379614995 1 -6 0
87 1 -0.0008208221980291162 -3.133851243789808 -8.517166998632739 -10.71862115594051 2 -5 0
18 1 0.05619805717594242 -5.445873139747034 -11.877576583649 -12.577054045900963 2 -5 0
412 1 0.0007293611685592963 -6.204790983361976 -8.092299066335285 -8.457973721374842 2 -6 0
420 1 -0.00229401518023534 -1.6130236469178012 -8.165039249453336 -7.48590752317506 1 -6 0
86 1 -0.002364197752226106 -3.0809574613563946 -7.789815770785386 -9.440890318163415 2 -6 0
424 1 9.76408986085326e-05 -0.6477055743167632 -7.037798833395667 -7.85299264236725 1 -5 -1
78 1 -0.001914673780856069 -5.558060907625466 -6.995100822946823 -9.113067467465395 2 -6 0
83 1 -0.00277697164212248 -4.0479970607836115 -6.754991214680008 -9.094101272462794 2 -6 0
92 1 -0.001819060821031539 -0.5747661171774379 -6.706657284717048 -9.432528101638454 2 -7 0
80 1 0.0004818154828256579 -4.851761669619895 -8.304174380594064 -12.941541997108558 2 -5 0
869 1 -0.0001127764106884747 -2.4837385033655686 -0.073579718394015 -3.8012634560805836 1 -6 0
463 1 -0.001653438120478634 -11.502951805101121 -1.0517195108289226 -7.801314435624585 2 -6 0
470 1 -3.809759740815155e-05 -8.709080482465112 -3.566202811809317 -7.568631828832002 1 -6 -1
457 1 0.001210147015750108 -12.76226606068728 -3.895759533002783 -7.733599673643298 2 -6 0
71 1 -0.003321506445525008 -9.832387111524366 -6.390336652214794 -11.38671349360177 2 -6 0
66 1 -0.002799491143542998 -11.654121983088874 -5.739190151542443 -9.634029036969546 2 -6 0
68 1 0.0005405119788587411 -11.095813445752434 -4.386963076440102 -9.509484848769274 1 -7 -1
127 1 0.02392014354791182 -7.856500037826514 -4.262621656906012 -11.877785859420689 1 -6 0
125 1 -0.002618178940054602 -9.245708965760121 -4.243532293575447 -11.425369843087193 1 -6 0
124 1 0.001736280937527007 -9.69704161520416 -4.10430501401278 -10.032146163577039 2 -6 0
403 1 0.0001400761108968085 -12.698760017716342 -5.066822741865874 -6.813829812109614 2 -6 0
70 1 -0.003003615767365377 -10.021960643931827 -5.225934360873557 -12.236634394742318 2 -6 0
471 1 -0.001056072616796543 -7.349061179121672 -3.7129901502644103 -7.07224130997692 2 -6 0
126 1 -0.0002843940261782994 -8.6817023324313 -3.8523299897794825 -9.024483290760674 1 -6 -1
462 1 0.001222993704617422 -11.598221953908268 -3.4364593435779405 -8.52709091481875 2 -6 0
402 1 -0.0005078772814487258 -12.853206155374584 -6.374257967830475 -7.5013457902906095 2 -6 0
468 1 -0.0009583982029324825 -9.783453228962586 -2.739950831009935 -7.011880171374537 2 -6 0
465 1 -0.0007405023707686004 -10.851937223816645 -2.30517613333131 -7.925784615282115 2 -6 0
455 1 0.0009647174226699515 -13.940413426592583 -3.0552039671255056 -7.714133301216255 2 -6 0
456 1 -0.0001035294432575225 -13.887907376620717 -1.800119986803141 -8.47958264471727 2 -6 0
459 1 -0.0007815856094000317 -12.75337139070705 -0.9444421356632731 -8.722534013680157 2 -6 0
122 1 -0.0007765096702631001 -13.443665713741806 -0.36947130120216265 -12.555984301605429 2 -6 0
123 1 -0.001072909103403831 -12.08816596786911 -0.0776488469266603 -12.158618104674263 2 -6 0
464 1 -0.000999833148858844 -11.250008898557908 -0.26687278154976823 -6.5536302352639115 2 -6 0
76 1 -0.005962638831856115 -6.416901535880996 -6.467707542936426 -10.181364672055606 1 -5 0
128 1 -0.0004502277822542172 -7.2886177882915915 -3.8646191097599694 -9.463599968475457 2 -6 0
140 1 0.0004994338642132119 -0.024774222715024052 -0.957029059710532 -10.701694765760966 1 -6 0
129 1 0.01255912167301223 -6.905217636704732 -4.262009219227149 -10.80696467532335 1 -6 0
475 1 0.001332835201909841 -6.469838773570288 -3.564555860841674 -8.260580967436375 2 -6 0
131 1 0.239393949993836 -5.727763463832138 -1.6940639358571818 -12.300027742239127 2 -6 0
77 1 -0.0001256878270922291 -5.750244710224052 -5.25827796426141 -10.96195494717392 2 -6 0
418 1 -0.001197329912942569 -1.8310205736922232 -4.930014417944754 -7.440343150470662 2 -6 0
84 1 -0.001916477078800369 -3.740289221253473 -5.318688569172849 -9.25494506845068 2 -6 0
423 1 0.001791368966882142 -1.1870338373616267 -6.024306194248613 -6.842356413932083 1 -5 -1
90 1 -0.002654579140413137 -1.4376847010957228 -5.677233986845572 -9.788011757248475 1 -6 0
89 1 -0.001680941638776825 -1.8763827764661922 -5.519185008351011 -11.227992215120164 2 -6 0
85 1 0.005083521611621697 -3.2821048266610493 -5.300164202140098 -11.531525515867463 1 -6 -1
88 1 -0.001516710525179418 -2.3554052297232584 -5.0409010958915434 -8.78893482935666 1 -6 0
81 1 0.002142887847336855 -4.234066230392809 -4.649944829469311 -10.501205329987819 2 -6 0
91 1 -0.0001496072207845707 -0.7581209246085123 -5.7399946287547685 -12.156527764906992 1 -6 0
79 1 0.01281208888251583 -5.380211647312025 -5.604677869227542 -12.38362494453158 1 -6 0
135 1 0.02085664009646507 -4.4901519139646044 -3.050394233962761 -10.31885189314104 1 -6 -1
478 1 0.0003462270352214032 -5.415749739407202 -2.700727850084631 -7.910331751091417 2 -6 0
82 1 0.002332885175768056 -3.987949053305183 -6.0368562111136095 -12.540913798050518 2 -5 0
134 1 -0.003821502095354926 -4.651503193079314 -2.3393761262126436 -9.01972667588679 1 -6 -1
132 1 -0.04329081687034743 -5.1245050744821015 -2.300976222781115 -11.305678051058656 2 -6 0
139 1 0.0004970457767995359 -0.17384196385417106 -2.5674822122501286 -12.627889289036956 2 -6 0
485 1 -0.000833725980897964 -2.247564797294709 -1.437784379486219 -7.096253534283112 1 -6 -1
138 1 0.0004984232171893824 -0.6035971439096599 -1.2650456099181167 -12.01311058990677 1 -6 0
486 1 -0.0003997812654142237 -0.9984340072414124 -1.1588891965328294 -7.647575843194305 1 -7 0
136 1 0.002338415285715788 -4.5240157560203365 -0.7936025783070129 -8.887322451628602 2 -6 0
137 1 -0.0003964975901239384 -1.614624650838616 -0.5200709365977829 -12.776061167381098 2 -6 0
130 1 -0.05633851078238198 -6.001875026835405 -0.3112529567067437 -12.090279878081834 2 -6 0
481 1 -0.00149696441119585 -4.194462345957591 -0.1854619053961759 -7.560494824339268 2 -6 0
482 1 0.0004882410437167459 -2.9372043806704067 -0.23524962821822193 -7.193850155660103 2 -6 0
133 1 -0.005799414621162506 -4.845128391616113 -0.060714783131979644 -9.939481174584886 2 -6 0
339 1 -0.006908148678997163 -13.517332034438814 -12.55844316939693 -5.545554724962864 2 -5 -1
351 1 -0.05028632934493417 -8.244563787224742 -12.127304166042462 -5.875413462904537 2 -6 0
344 1 -0.005563576708455087 -12.150074677117676 -10.54082471563368 -5.640386631640998 2 -5 -1
348 1 -0.004156532407995874 -10.147268127965301 -12.786965787962476 -4.241323838708501 2 -6 0
681 1 0.02616347550035074 -9.421302080460485 -12.406813505700933 -1.1461923648091936 1 -5 0
683 1 -0.006193912944085271 -9.035756006232337 -11.695316634636594 -2.3951865081428405 1 -5 0
679 1 0.006781503583986059 -10.012422854051486 -11.505819482506633 -3.550422767217265 1 -5 0
686 1 -0.004458411645340336 -7.650568701539413 -11.515771719810374 -2.8976320657106935 1 -5 0
680 1 -0.001050537932765449 -9.918087100163472 -10.26665402624405 -4.260324231247685 2 -6 -1
687 1 -0.002515984704401246 -7.506048421118658 -10.230412062002067 -3.5178429558735846 2 -6 0
677 1 -0.05442670714646738 -12.626946090365166 -9.91319684583305 -0.4232530951913791 2 -6 0
347 1 0.008275006079846263 -10.959714956192455 -9.800518191494989 -5.209727571434741 2 -6 -1
684 1 -0.002188297581652097 -8.623006700687123 -9.523627231127902 -4.2213915103358595 2 -6 -1
685 1 0.003104124695746811 -8.24809055679872 -9.587805129286027 -0.3746042094751463 1 -6 0
340 1 -0.0005167753473276811 -13.152843199251015 -11.335106350168441 -4.8345885374109 2 -5 -1
678 1 0.02691902882084262 -11.654300489801672 -9.045511505768541 -0.7876118555156957 2 -6 0
682 1 -0.004637284219384712 -9.362818147841594 -8.8522506020789 -0.7895309386490048 2 -6 0
405 1 -0.001869406704791406 -10.74726303718424 -8.581154133197463 -5.970495050975919 2 -5 0
409 1 0.001640227194306666 -8.30262324975671 -8.374329680404216 -5.0456074998517675 2 -6 -1
731 1 -0.008486256735981699 -11.718768653726391 -8.223942666279068 -1.9172650494949153 2 -6 -1
735 1 -0.001974721377803586 -9.297717784185709 -7.902371723633532 -1.7515189371101911 2 -6 0
676 1 0.005172370618679355 -13.670729851892045 -10.374476606061146 -1.3169461059046181 2 -6 0
729 1 0.0003139199775569514 -12.853028442972883 -7.70918221478014 -2.6492517961549815 2 -6 -1
406 1 0.0004406115685657158 -9.485297305537678 -7.621640194819231 -5.6102146509231865 2 -6 0
733 1 -0.001942857200622955 -10.531956697734216 -7.610113708169386 -2.2665385717182414 1 -6 -2
675 1 -0.0001040562229902668 -13.878768679304489 -9.891980551867194 -2.6817834669372598 2 -6 0
738 1 0.0002391824126102629 -7.999548547033822 -7.26357926163282 -1.873150677497037 2 -6 0
728 1 -0.002422065830980775 -14.063369720858404 -8.4300939508839 -2.7538332743276346 1 -5 -1
674 1 -0.001755278841169685 -14.09801171821419 -10.847132575846729 -3.799274490348898 2 -5 -1
399 1 0.0008025169337070245 -13.791161560939923 -6.992445304480256 -5.298543372391283 2 -6 0
730 1 -0.002193726492865092 -12.384568875597305 -6.568347429025569 -3.427017513202408 2 -6 -1
353 1 0.006356974220346033 -6.962749573182363 -11.97526821582703 -5.240656564078867 2 -6 0
688 1 -0.004620206245261337 -6.9223036338604444 -12.453249857769997 -3.793616234236044 1 -5 0
411 1 0.0002027461865521801 -7.029558612630139 -7.602861099341619 -5.05875789300885 2 -6 -1
363 1 0.03401491825810275 -1.7850971998333574 -12.288989658747267 -6.211258085886411 1 -5 -1
689 1 -0.003994370834616023 -6.916053355088759 -9.23234303299055 -0.9229172268296875 1 -6 0
741 1 -0.001377066748375629 -6.756271016410829 -8.03096889243578 -1.77441333273676 1 -6 0
419 1 -0.00351566253826022 -1.5622274245714962 -8.612947714309081 -6.169717066521093 1 -6 0
355 1 -0.005382042309628528 -6.221538523058106 -10.75676254293305 -5.505863608102788 2 -6 0
690 1 -0.001768115671567646 -6.199115992060932 -10.004636828179454 -4.1914311078611615 2 -5 0
691 1 -0.004827474783860593 -5.769242547857793 -9.892548036448098 -0.3448950172971905 1 -6 -2
693 1 0.005118903407595684 -3.3624425996515797 -12.382817735318241 -0.4104017141310319 2 -5 0
694 1 -0.04018793427310022 -2.4194544446809534 -12.306880640790776 -1.5068891477036104 1 -6 -1
696 1 0.2459256811530643 -1.4727713175614845 -12.288049324135674 -3.6576932285335264 1 -6 -1
365 1 -0.0431980869164653 -1.5042453881359226 -11.616554358325958 -4.927799475043216 1 -5 -1
695 1 -0.04681321580594013 -1.7080164983356259 -11.501805096986088 -2.494540314619817 1 -6 -1
698 1 0.01148682595785133 -1.2215249699680903 -10.226771481862436 -2.435718131425885 1 -6 -1
364 1 0.002552874904240577 -1.9396402254634726 -10.249954440855129 -4.735069743138665 1 -6 0
699 1 0.004157885654588266 -0.5699221066112123 -9.570379947496829 -1.3105856186716576 1 -6 -1
697 1 -0.006298028471878232 -1.4748238362917654 -9.513332268089686 -3.5926722655946506 2 -6 0
362 1 -0.001181842596234701 -2.4291333212407658 -9.558655721443067 -5.740225025730128 1 -6 0
359 1 -0.002561751958231058 -3.8179512289069404 -9.310764958680565 -5.802756464738151 2 -6 -1
692 1 -0.001056011238780213 -5.339735380740784 -8.870083223807654 -3.7559071516066496 2 -5 0
755 1 0.005702142088226766 -1.1664899605894092 -8.33656600861673 -0.9079272505524667 1 -6 -1
414 1 -0.001712253060873945 -4.686384260729257 -8.437246004168959 -4.962646280292066 2 -6 -1
754 1 0.01512989934618881 -1.486427447325097 -8.08255140841645 -3.7761735240753005 2 -6 0
413 1 -0.00181057659191956 -5.822953204284639 -8.01913779259802 -5.758190327309135 2 -6 0
743 1 -0.001772140627839952 -5.671730492681123 -7.819874069315476 -2.7365861808421386 2 -5 0
422 1 0.01212350791276933 -1.2280965000351767 -7.668189383305903 -5.126994064026566 1 -6 0
751 1 0.0006860560716879897 -2.10817172554537 -7.484726585615233 -1.4954130610713552 2 -6 0
752 1 0.005393091580477526 -2.028883246303204 -7.153134978672195 -2.8533686378641665 2 -6 0
749 1 7.682363100458556e-05 -2.8449714510057866 -6.758029636418831 -0.5364152421512838 2 -6 0
732 1 -0.0009659541232991727 -10.976611232898115 -6.48120620331567 -3.010093431300474 2 -6 -1
787 1 -0.0009147037488598814 -12.094355558050015 -0.0338647865143642 -4.143060567296164 2 -6 0
791 1 0.0001287099483441093 -11.105119104726171 -0.27384398155793477 -3.0952452036861224 2 -6 0
788 1 0.0009034492646216516 -11.871715020638606 -0.5508433924892291 -0.6059899913387845 2 -6 -1
460 1 -0.0003158464146520157 -11.89244947637139 -0.901088867023816 -5.378844393069754 2 -6 0
783 1 0.0004036401684324419 -13.837053755689128 -3.1450957644132362 -1.4431243821922752 2 -6 -1
798 1 0.001143108749540281 -8.989200333854328 -1.775236402442511 -2.605193991790845 1 -6 0
801 1 0.001128980421205614 -7.677378432270548 -1.8067561742084983 -3.1836851950358156 2 -6 -1
793 1 0.0006302263894560709 -10.950402867920783 -2.4687262737719315 -1.581412095619939 2 -6 -1
786 1 0.001408843731590698 -13.060243465262896 -3.1439003840032864 -2.771979055537452 2 -6 -1
796 1 0.0003824203245013612 -9.518992289750848 -2.6316144578749707 -1.6897043048604097 2 -6 -1
466 1 0.0005037492215402804 -10.38880385606855 -2.95832911967098 -5.674372902941393 2 -6 0
458 1 0.0007318981129035285 -12.818085342999725 -3.346144082452801 -5.1500523801555955 2 -6 0
404 1 0.001038958717449261 -12.769869450861703 -4.803833525420725 -5.442211763085675 2 -6 0
407 1 -0.001925588156718009 -9.412275949516253 -6.3446668957859425 -5.404679062863467 2 -6 0
797 1 4.972339903725614e-06 -8.890874413461432 -3.948701459245065 -1.4227289420890354 2 -6 -1
736 1 0.0001091050632727568 -9.13259155027436 -5.1778059824338225 -2.0765446224768365 2 -6 -1
408 1 0.000960309155044109 -9.002423100734454 -5.110977694514311 -5.061238961719849 2 -6 0
737 1 0.001098853790890111 -7.955677145813952 -5.91077183412772 -1.9368325199818148 1 -6 0
734 1 4.348592705652465e-05 -10.186565216658952 -5.344665327651457 -2.9216951626914582 2 -6 -1
410 1 0.0008801802894421 -7.50314340486951 -5.1702065364590375 -4.633613360120046 2 -6 0
794 1 0.0008875778821735587 -10.857055171941704 -4.2117243119426195 -3.625949281040901 2 -6 0
799 1 -0.001716018438209746 -7.870188284734423 -4.196987422975827 -0.42975416760504537 1 -6 0
467 1 0.001729065227815529 -10.048406340508254 -4.0507421845240135 -4.812599217927728 2 -6 0
789 1 0.0009742023650117903 -11.6385742893332 -3.3355256625943834 -2.7589179072836636 2 -6 -1
401 1 -0.0006102285222444812 -13.034185728366769 -5.960225509125316 -4.5389348474812135 2 -6 0
461 1 -0.0004330773181664797 -11.744093232488023 -2.387692968896765 -5.4035076205889885 2 -6 0
785 1 -0.001962593298749735 -13.597065514050238 -4.072464990207129 -0.2958984146363779 2 -6 -1
784 1 0.0006192314150186007 -13.64171268151777 -2.7702392688423707 -4.077019663347974 2 -6 0
790 1 0.0005770462277874255 -11.414264867440753 -0.9327701466712277 -1.8242648215415151 2 -6 -1
800 1 0.0001998582127098573 -7.738475222640704 -1.1527468848520286 -4.428861976616346 2 -6 -1
795 1 -0.0005543877280602023 -9.75289664348131 -0.7861848329290524 -3.372841635747003 2 -6 0
469 1 -0.0001060049990441979 -9.009521487942004 -0.5376467137499343 -4.514046197707456 2 -6 0
792 1 -0.002009084905921971 -11.307483844312287 -2.997143768686863 -0.19744003160614731 2 -6 -1
803 1 0.0005921565763275724 -6.350210181753372 -2.0004808538855254 -1.0978596683940651 2 -6 -1
753 1 0.003247606773778089 -1.497068314346782 -4.731599816454299 -0.40869871137275915 2 -6 0
473 1 0.0003397386886640139 -6.629262545296967 -3.2743413428728534 -5.898906543588296 2 -6 0
812 1 -0.0008187185873120874 -2.195219799407127 -1.2634089664239259 -3.066198140813068 2 -6 0
483 1 -0.0008060437829083104 -2.9180625552058537 -2.6117075109574373 -6.554771155099659 1 -6 -1
750 1 0.003657014523793316 -2.5336113301355567 -5.909946106557423 -3.2501073263757814 2 -6 0
815 1 0.007440113965615384 -0.6133424757481656 -4.090741725264715 -1.381339657185432 1 -6 0
746 1 -0.0001960628098643322 -3.8222660420621235 -4.446004963741194 -0.08873130603274504 1 -6 -1
744 1 0.0001401342595015523 -5.6244206652498985 -6.4547877853571825 -3.3427103193341967 2 -5 0
742 1 0.0005802066607845033 -5.6941286790789345 -5.030758697562554 -1.445058186849188 1 -6 0
809 1 -0.0001867980201309856 -4.503760708314191 -1.7937674297267634 -3.1773308236842226 1 -6 0
802 1 0.001819895999423182 -6.5932016904007495 -2.3565914173006064 -2.4670280711824155 2 -6 -1
810 1 -0.001135389543650549 -3.21751309818697 -2.284701869953091 -2.999632876161014 2 -6 0
813 1 0.002537726491257691 -1.3263828714586587 -3.2992238461766004 -2.386844115599546 1 -6 -1
806 1 -0.0002186860930153897 -5.298365387067021 -2.774141579818423 -0.37501966168145806 1 -6 0
477 1 -0.000908019704519895 -5.485195946652739 -2.2650735268632864 -6.323488295866084 2 -6 -1
472 1 -0.0002959157969668891 -6.935891306676512 -0.44770001345194466 -5.279790909032365 2 -6 -1
747 1 0.0002150157272235963 -3.3529677307983903 -4.9526643870162825 -2.426219531954331 1 -6 0
808 1 6.089568909304829e-05 -4.820152836010379 -0.37911723296395294 -2.9067527428188953 2 -6 -1
804 1 -0.0003939167143784984 -5.545742458241628 -2.6994662814301638 -3.231321128697372 1 -6 0
484 1 0.000314587205180638 -2.3625482606824555 -3.9708918065136682 -6.429863966811589 1 -6 -1
739 1 -0.0001980107731315434 -7.054316455380971 -5.24164738110057 -1.0728964991671486 1 -6 0
417 1 0.00124635543914451 -2.2141049318761574 -5.632424478105141 -4.620858991988019 1 -6 -1
807 1 -0.001380076413551888 -5.098512448727627 -4.166245964602751 -0.5327483308403202 1 -6 0
740 1 -0.0001092984903304749 -6.7389033699526975 -6.334130090606339 -4.237281517550715 2 -6 0
421 1 0.01455279015168889 -1.340034005319847 -6.309728198587626 -5.47954490147702 1 -6 -1
476 1 6.139737190680519e-05 -5.824512593242986 -0.8370023518476888 -5.979090437764698 2 -6 -1
814 1 -0.0001388566828672694 -0.9668925587426003 -1.896519325674511 -2.752177156856993 1 -6 0
811 1 0.0006290946940432623 -2.7185084276527967 -3.5640229722883348 -2.610508390067439 1 -6 0
415 1 0.001127923609698517 -2.964990907308115 -4.551481102268529 -5.252960946323256 1 -6 0
745 1 0.0004330124685797115 -5.013244113961292 -5.1719533797725825 -2.7222641303840796 1 -6 0
748 1 0.001692462115262834 -2.9539000061199605 -5.311718864379937 -0.8683799128856364 1 -6 0
480 1 0.0001196884230036839 -4.136099833122815 -3.8239955404699533 -4.8513605487942275 1 -5 -1
479 1 -0.0006289347822403986 -4.114718052828556 -2.7197186186690594 -5.76917511437224 1 -6 -1
474 1 0.0008365480494969893 -6.592031916647179 -4.035720297261765 -4.708704251616274 2 -6 0
805 1 -0.0002277884048267481 -5.279894668729915 -4.004468449530192 -3.8080028325561273 1 -6 0
546 1 8.523983346956157e-05 -1.083382223637436 -0.0595216656850841 -8.515160775102533 2 -6 0
1062 1 0.002991699368020458 -13.823378777087758 -7.0588837151829305 -0.12565724406059608 2 -6 -1
1172 1 0.0003917813066735311 -7.666638954829711 -0.16907959781360837 -0.10904213643028626 1 -6 0
1064 1 -0.001577172421594081 -12.551742005941735 -5.098670881717565 -0.32191762498804444 2 -6 -1
1123 1 0.0004087213439135234 -7.226991954307032 -1.4540964458182426 -0.1795129539896685 2 -6 -1
1339 1 -0.0006162278747162686 -10.024163792798639 -12.786772144661851 6.036083520613072 2 -6 -1
1020 1 -0.00112620646784159 -7.389913316616638 -12.706740359327059 3.8897252358389522 1 -6 -2
1012 1 0.04719756282616748 -9.55829830083651 -12.70531065886945 1.5304126570230387 1 -6 0
1014 1 0.02714356525435845 -9.217892089319871 -11.65355471421965 2.4888293102233394 1 -6 -1
1018 1 -0.00400342853147986 -8.063052034777368 -11.556656001680874 3.369469216889197 1 -6 -1
1337 1 -0.004160649874470523 -10.395917293132985 -11.371387209733046 6.23184684255067 2 -6 -1
1331 1 0.0125991822575354 -12.017059530108563 -12.308402771214524 4.817748790402337 1 -5 -1
1333 1 0.02732897088208969 -11.433170029528531 -11.082677529570566 5.229826958110017 1 -5 -1
1010 3 -0.4707469512341342 -12.039268448731715 -10.619553780493748 1.9472797491718339 2 -6 0
1015 1 0.03928799032072321 -9.089148709213474 -10.320975388796082 1.8087972302531465 2 -5 -1
1329 1 0.01157090021458156 -12.441615594491207 -10.010482976466918 5.31254434708805 1 -5 -1
1009 1 0.325170749309789 -12.802387153496742 -10.668907319508257 0.9166403034901052 2 -6 0
1017 1 -0.009689066996524071 -8.593053968332322 -10.671754853095024 0.5441555740062629 1 -6 0
1019 1 -0.001221904982767075 -7.5815406207325715 -8.997266700241767 3.242516288270931 2 -6 -1
1016 1 0.003826258229098985 -8.741520994676995 -9.00767513732259 2.429523399067717 2 -6 -1
1332 1 0.003383048839884401 -11.984644150551917 -8.818593429415174 5.931842095625786 1 -5 -1
1008 1 0.0232201308731498 -13.238691808598393 -12.457860730342716 4.195859489471328 2 -6 -1
1069 1 0.02410491969872006 -10.635454208113439 -7.903313148128428 1.1337111741532073 2 -6 0
1070 1 0.00413401980437357 -9.499146294689728 -7.864505881210374 1.9845324117347563 2 -5 -1
1327 1 0.01929460809440673 -13.807038863986502 -10.192479482544554 4.7658335989986895 2 -5 0
1382 1 0.002634821691265145 -12.557402517625924 -7.4222130558954404 5.989698102319263 2 -6 -1
1007 1 -0.04783819423183487 -13.921681477444055 -11.738212420177783 0.6461225822339784 2 -6 -1
1013 1 0.005074893946718922 -9.232285240690434 -12.030003949175697 0.27039291148290445 1 -6 0
1395 1 -1.462375919826162e-05 -7.670480540716428 -6.889796982608427 4.509558433930536 2 -6 -1
1380 1 0.0001601546389895098 -13.879357884182959 -6.908661556714159 5.719424594877079 2 -6 -1
1067 1 -0.004389098782967745 -11.484972980579315 -6.622192376910276 1.1681636789681669 2 -5 -1
1326 1 0.008383319736996176 -14.28415027843969 -11.463227913388986 4.286643318993953 2 -5 -1
1396 1 0.001321909334748898 -7.253746277795742 -6.5886887917535155 5.854843244193859 2 -6 -1
1065 1 0.01808714868272308 -12.299703405212137 -6.757201254232217 2.6369451377251583 2 -6 0
1072 1 -0.002533711746580881 -9.164379375879012 -6.504005904118506 2.5270017795503072 2 -6 -1
1814 1 -0.0006223198989552849 -0.001242210841757796 -0.03234215643698235 10.574698552419257 1 -6 -1
1011 1 0.01517348250030202 -10.483012336734161 -8.796644552577796 0.020817926000669118 2 -6 -1
1021 1 0.001102023788643665 -7.133434100903182 -10.383081501266574 3.5060084750811775 2 -6 -1
1074 1 -0.00042961036276511 -6.8409035407414285 -7.8246234326214985 3.722985557222657 2 -6 -1
1341 1 -0.001865765212002364 -6.28443025608512 -12.18648311829724 4.883299147473263 2 -6 -1
1022 1 -0.0002889395065116818 -6.0117059549035705 -10.7792748067518 4.264213984204758 2 -6 -1
1030 1 0.002253453940864767 -2.4987095593582094 -12.416600513340374 2.562059949155378 1 -5 -1
1031 1 -0.0001005896989836851 -1.8465269470764145 -11.85172518913506 3.7585920170848652 1 -5 -1
1348 1 -0.0001698487613246979 -3.0460350487006114 -11.777986697432503 4.624545955750314 1 -6 -1
1028 1 -0.0006719039883509408 -2.9455826340609548 -11.225182345141384 1.8268077726965188 1 -6 0
1033 1 3.454482198037706e-05 -0.9124206204149896 -10.713192520662187 3.9317731517682866 1 -6 -1
1346 1 0.0003407899865790383 -3.5856297779319153 -10.441889737545914 4.949955020822998 2 -6 -1
1024 1 0.0001976272952691691 -4.80284636061287 -10.052868500462651 4.275013203721141 1 -6 -1
1029 1 -0.0004483093443259541 -2.5753379054425203 -9.885086670393303 2.332991856225748 1 -6 0
1032 1 0.001302993787638897 -1.2896927169504835 -9.697429374844395 3.0000950091413685 1 -5 -1
1347 1 0.0003898705760148093 -2.9888476318791852 -9.513602529325523 5.982644232816941 1 -6 -1
1353 1 -0.0002870566311180822 -0.40848202274423784 -9.147961842323578 5.657921736756698 1 -6 -1
1025 1 0.001687362502867197 -4.568128567385916 -8.79809258656136 3.381674888162305 2 -6 -1
1076 1 -0.0002864663104641882 -3.4125070300383182 -8.665748626976335 2.5401129781753156 1 -6 0
1349 1 0.001636571916850856 -1.7968613190053073 -8.672909431023148 5.848728334707438 2 -6 -1
1026 1 -0.001349331571139867 -3.7514941083367415 -11.389520847733632 0.5808672984709915 2 -5 0
1083 1 -2.583508831231415e-05 -0.3383974498425779 -8.58492508078232 2.65991045071922 1 -6 0
1084 1 -0.0004848303904295796 -0.14234243628351173 -8.472006503051789 1.2006639409808582 1 -6 0
1081 1 -0.0002939298672130844 -1.2063928258742251 -8.01374735425842 0.449109024505832 1 -6 0
1075 1 -0.0009450819760556846 -5.445128633523121 -7.599686912745413 3.6281995169565313 2 -6 -1
1078 1 0.0009496780152248203 -2.989770550367629 -7.265803766309232 2.1222260589403863 1 -6 0
1080 1 0.000570335511092479 -2.3797244276594807 -7.154554950614946 0.7708469438770571 1 -6 0
1745 1 0.001136256077818927 -3.0703206518799924 -4.946418768660111 9.366602689731494 1 -6 -1
1340 1 -0.003494251661622937 -6.439287232129372 -12.126375484892396 6.551987667820917 1 -6 -1
1398 1 -0.002761878370928051 -5.798722865604741 -6.656722235333368 5.769576184150658 1 -6 -1
1401 1 -0.0002250676809477763 -4.999453199370148 -6.537691609344584 4.560966374895081 2 -7 -1
1407 1 -0.0003560514270577082 -1.934479913151895 -7.394815057563475 6.54443179076927 1 -6 -1
1027 1 -0.001956767776472634 -3.8628629172904194 -12.872021692631389 4.173908506869278 2 -6 -1