LAMMPS data file via write_data, version 29 Aug 2024, timestep = 1000, units = real

1962 atoms
3 atom types

-13.6102118560428 13.6102118560428 xlo xhi
-13.620421568434459 13.620421568434459 ylo yhi
-12.640370297581706 12.640370297581706 zlo zhi

Masses

1 12
2 1.008
3 15.999

Atoms # charge

340 1 0.006035142454023236 -8.166276424676457 -10.691024577985903 -6.726401771129555 2 -1 4
341 1 0.001099852112449937 -7.861100683986886 -10.907918483371434 -8.122311518360586 2 -1 4
15 1 -0.0009378783641695379 -7.292046193283107 -11.354807477016621 -9.284139433839039 2 -1 4
6 1 -0.001324294218514214 -11.629346252246902 -10.285599961487588 -9.217020716337018 3 -1 4
8 1 -0.00171750221406642 -10.449352070805082 -10.157330403922536 -9.991143166873556 3 -1 4
5 1 0.001280081624565586 -11.867262008225714 -9.085710537293053 -8.582502016839026 3 -1 4
10 1 0.002681870388553474 -9.523768260973005 -9.043369716246907 -10.143679223813676 3 -1 4
62 1 0.001497602301485924 -10.386295325001722 -7.8055659640309845 -10.068597585122948 3 -1 4
60 1 0.0007824325243779642 -11.533102728855962 -7.852938493736701 -9.273025871507215 3 -1 4
14 1 0.0002079640380036208 -7.808123358732153 -10.937411916666104 -10.754650407602133 2 -1 4
13 1 0.0010121631478212 -8.337324909810738 -9.466228068154013 -10.862887473289488 2 -1 4
9 1 0.000237051721715429 -10.363198207919995 -11.204650777637895 -11.041550766442686 2 -1 4
3 1 -0.001390828641339079 -12.555710320179067 -13.099959942928507 -10.98972603378704 2 -1 4
11 1 -0.001970293588096642 -9.026922778841099 -11.77981753765811 -11.119456359829911 2 -1 4
2 1 -0.001924882166931301 -12.445220912952609 -11.456206446945199 -9.061127432119017 3 -1 4
389 1 -0.001566112917705694 -12.685565481915397 -9.006079102641413 -7.478683626991725 2 -2 5
1 1 -0.001221861363835331 -12.936394795152601 -12.597174123421802 -9.694968533102976 2 -1 4
386 1 0.002840749513800468 -12.950939403561321 -7.866868104802632 -6.707532080412631 2 -1 4
7 1 -0.002285138274651426 -11.486666835278848 -11.073395588814146 -12.020639259684252 2 -1 4
12 1 0.004182605994049206 -8.63971788542719 -12.880055913886434 -11.963710288961225 2 -2 4
66 1 0.000202301570493113 -7.995369618498565 -8.990278568792263 -12.179677288919303 3 -1 5
4 1 -0.0009118484482313963 -12.088328947943085 -12.40977421455717 -12.212262075714662 2 -1 4
65 1 -0.0006392772438427331 -8.044601467834662 -7.371957959092259 -12.27844862314434 2 -1 4
16 1 0.001107955334471694 -7.066293548258339 -12.629247580876081 -12.40403654865554 3 -1 4
337 1 5.9678149551292e-05 -13.086504963462511 -10.229991415679391 -6.979541878348863 2 -2 5
338 1 -0.0006865830847684572 -13.110715008346029 -11.382237481915109 -7.8361819921144376 2 -2 5
58 1 0.0008413376946294904 -12.661092438240196 -6.969023881157549 -9.560360568814467 3 -2 4
385 1 -0.005854353168732104 -13.433203803381229 -6.776865933350178 -7.398653901771342 2 -1 4
17 1 -0.0001559995827923721 -6.702067241046308 -11.097465531616617 -12.029050008295037 2 -1 4
19 1 -0.001663773307806201 -6.37774748250066 -12.407351885094421 -8.960648767755563 2 -1 4
20 1 -0.0003486523696228511 -5.891030592317548 -13.095958606682762 -10.161878539859615 2 -1 4
344 1 -0.001043278939771512 -5.567355671463218 -11.958720692707999 -6.57551518431719 2 -1 4
345 1 -0.000753404069712648 -5.409985021864161 -12.599142208290285 -7.811965854245006 3 -1 4
349 1 -5.70276596178719e-05 -3.0056743438742632 -9.870646257494156 -6.566597536163524 2 -1 4
355 1 0.0003905366379906156 -0.4393698778016315 -12.982491698881425 -6.946239297638063 2 -1 4
353 1 0.00142800379673479 -0.6348180576092055 -10.43140929560733 -7.257417522041944 2 -1 4
351 1 -0.0004629313474792951 -2.032737689227842 -10.300251734075212 -7.601617136813421 2 -1 4
348 1 -0.001461786750580445 -4.1644143790096475 -9.051022305891511 -6.799650974246475 2 -1 4
400 1 0.002607927790477933 -4.308612367009399 -8.656399542977702 -8.162077941849255 2 -1 4
26 1 -1.657570821808965e-05 -2.4382685761818195 -10.208959820715815 -9.01436775290291 2 -1 4
24 1 -0.001477001057137023 -3.438339095776115 -9.126228464769573 -9.167140893164827 2 -1 4
22 1 0.000296946846821463 -4.467562327160186 -12.773739874134542 -10.148616140694353 3 -1 4
27 1 0.0003797873353849936 -1.8491754700968155 -10.76448088403857 -10.301226697193423 2 -1 4
74 1 -0.001950938525541025 -3.783416002701067 -8.39721420004501 -10.343278744259226 2 -1 4
28 1 0.0006306865746169739 -0.40289784008192875 -10.92419672704106 -10.726136457610876 2 -1 4
73 1 0.0007682311630596989 -4.991858876860144 -7.712710353836035 -9.976806068218815 2 -1 4
71 1 -0.01022829522036754 -5.304478363624858 -7.680290414512581 -8.56571400512201 2 -1 4
23 1 0.001089990877136422 -4.2162598551076425 -11.622229828851939 -10.985373619709668 2 -1 5
82 1 0.001103204511329951 -1.174390355618133 -7.466286360723772 -10.641009969971625 2 -1 4
25 1 0.002295257814963907 -2.8046904784281903 -11.21664126873679 -11.316709178241547 3 -1 5
76 1 0.001499984655775876 -3.1012941868442976 -8.41300381441932 -11.584482612489545 2 -1 4
80 1 -0.0003265142541156209 -1.6752709379296356 -8.451208538923503 -11.620930777309864 2 -1 4
21 1 -1.297756865630342e-05 -5.227194188072755 -10.947705287377516 -11.833133382503963 2 -2 4
70 1 -0.002947820076231133 -5.8606074900351315 -7.269995168552188 -11.063017643079004 2 -1 4
396 1 0.04694516988911109 -6.099782780500747 -6.98936223362915 -7.615746268862756 2 -2 5
72 1 -0.001698850273206074 -5.244652497590636 -7.132407693248262 -12.340851994775173 2 -1 4
75 1 -0.003882844574125069 -3.7476984073507413 -7.2626619670746955 -12.375291340893174 2 -1 4
18 1 0.001360878327407798 -6.260837722855021 -13.425802629392859 -11.53548644643399 2 -2 4
487 1 -0.004623240105907363 -13.483479009242748 -1.7091068325055598 -5.429729322013915 2 -1 4
68 1 -0.000493703118595052 -7.276131686361798 -6.91151194593894 -11.037643237113738 2 -2 4
64 1 -0.001194480189620296 -9.426188831515637 -6.669027286349905 -12.145300615584953 2 -2 4
115 1 0.003549966550094532 -11.56849950635826 -0.2523092597074683 -10.189947765886878 2 -2 4
428 1 -0.005651025543965602 -12.471407281020687 -2.2238844544417944 -7.5515101086080945 2 -2 5
114 1 0.006411927748636654 -12.358155023307617 -3.037150495101553 -8.78960224295726 2 -2 5
439 1 -0.07330719575132197 -7.886230252694585 -3.7347456431832082 -7.074676716589966 2 -2 5
393 1 0.2580842402831311 -7.413960301471999 -5.049779721527479 -6.91640707364299 2 -2 5
437 1 0.2275014833583536 -7.927001047808347 -2.8196563695348438 -8.184506889853825 2 -2 5
435 3 -0.5030440456260793 -8.794825745401177 -1.5600665201432111 -8.027761079946483 2 -2 5
125 1 -0.04146421312827253 -7.125874318223603 -2.861770205069206 -9.346525390172287 2 -2 5
430 1 0.03864687750297913 -11.413678578652945 -1.4159406226218785 -6.994001130432754 3 -1 5
117 1 0.01589250045742367 -11.197629935855453 -2.9539563186557753 -9.772089273160042 2 -1 4
124 1 -0.04642807497580245 -7.376306856030909 -1.589158712396264 -10.064462669293135 2 -2 5
116 1 0.01683261380895719 -11.221509924296598 -1.583730902772448 -10.021163509396983 2 -2 4
67 1 0.001644103597932253 -7.638068141106177 -5.686186520057578 -10.386309294750516 2 -2 4
59 1 -0.001232837767833353 -12.387430231043968 -5.706204347802692 -10.172313240126817 2 -2 4
121 1 0.2409107634533675 -8.254149712444871 -0.8874736661649134 -9.223561649017803 2 -2 5
118 1 0.001619699328083597 -10.544579163473035 -4.027423806175815 -10.54534413843024 2 -1 4
61 1 0.0008756742035041752 -10.989312277714287 -5.430081274645765 -10.525860766148924 2 -2 4
63 1 0.000387597548182822 -10.155784100802704 -6.593887711302396 -10.937136068506724 2 -2 4
122 1 -0.001452521578867024 -8.12371861704563 -4.5670098941272865 -11.306458388967378 2 -2 4
119 1 0.005205259209757094 -9.31312635137618 -3.7504104004622203 -11.32059636252183 2 -1 4
427 1 -0.002900019756115537 -13.14533577658844 -2.7882027308892656 -6.381482573019733 2 -1 4
126 1 -0.000757638668463765 -7.088612363359503 -3.76283697953124 -11.944620158635772 2 -1 4
120 1 -0.002248843816280637 -9.158219015396384 -2.796317192055886 -12.449131913449511 2 -1 4
127 1 -0.001475233566616441 -7.0028998488118654 -1.2839382011391418 -12.556592312992601 2 -2 5
57 1 0.002738490734717724 -13.42990948658041 -5.033007848463193 -11.025759290606153 2 -2 4
113 1 -0.003195866028483544 -12.784315993343446 -2.103223245086614 -12.593689464511472 2 -2 4
123 1 0.0004367874849617523 -7.70956712934803 -2.6236249211225413 -12.585592882893081 2 -2 4
395 1 -0.0669624882879174 -6.728307579341693 -5.7124399650964275 -7.926081031297659 2 -2 5
128 1 0.004288596959848368 -6.713481654596 -0.8862052058570029 -11.208924921018209 2 -2 4
69 1 0.005007344726028224 -6.731208893656433 -5.225642200954022 -9.309389183227868 2 -2 5
129 1 0.0003215489174093478 -6.188768188764648 -3.9248232253300337 -9.68292310804742 2 -1 4
443 1 -0.006882881997580619 -5.384115033786715 -2.9277339885012275 -6.65260930567248 2 -1 5
137 1 -0.00110094921561427 -0.8551363896603199 -1.4604643262244448 -8.722810025363557 2 -2 4
452 1 0.0009208102981903485 -0.4669404905280352 -4.323463944245972 -6.385552857322593 2 -1 4
404 1 -0.001475505281726498 -1.8158316550121434 -4.922744632572931 -6.355298164568513 2 -1 4
402 1 -0.002318983030257321 -2.2567906755411062 -4.983647233554901 -7.784849731941835 2 -2 4
448 1 -0.003545515512739131 -3.0478406624173804 -2.585036242071693 -7.801749216611292 2 -1 4
728 1 0.0005475385395189852 -0.616922049055141 -4.720039048837105 -3.166116330937717 2 -1 4
446 1 0.001277626405550927 -4.152731535105197 -2.1268864236681857 -7.043347942018362 2 -1 5
81 1 -0.0007613218129292228 -1.4628658281274696 -5.960699041918189 -8.526540828225055 2 -1 4
134 1 -0.002440828029600463 -2.8989548139306347 -3.908720352761442 -8.538827145495958 2 -1 4
450 1 -0.001733134473899514 -1.8374275101434705 -1.724105913398816 -7.639962760981857 2 -2 4
79 1 -0.0008597055623356768 -1.8800063293412723 -6.455395390328907 -9.810539507618298 2 -1 4
133 1 -0.002455981135479519 -3.131690661318334 -4.149592241462171 -9.884287036855197 2 -1 4
140 1 -0.002407367294808196 -0.18599153193586382 -3.428801128798572 -10.340945842334182 2 -2 4
78 1 -0.001712275033919294 -2.873610191578585 -5.547220708217472 -10.358364980673722 2 -1 4
132 1 -0.001355061519649821 -3.361881213155087 -3.0794779560114502 -10.961011225218098 2 -1 4
130 1 0.001125026240416462 -5.851982321622717 -3.7386581821948646 -11.118114026525884 2 -1 4
136 1 0.009770529865326071 -1.0634312557325565 -3.3862766857971565 -11.523503597892738 2 -2 4
131 1 -0.004406598549186968 -4.606756845370706 -3.2704673709871006 -11.649368584989828 2 -2 4
135 1 0.000823614134753417 -2.241450404880773 -2.494004753382736 -11.694844157143823 2 -2 4
77 1 0.0004534508213035679 -3.072236656299234 -5.929657609617872 -11.740092362641567 2 -1 4
83 1 0.0242908269516328 -0.9955606813629831 -4.699828638938165 -12.135742707765674 2 -2 4
139 1 0.0006167302240940517 -0.26114354633768855 -0.10191804544300354 -8.688887493478047 2 -2 4
138 1 -0.005389426783317611 -0.8673591581540965 -0.044361174519410795 -12.354604792261934 1 -2 4
342 1 0.0003521287367600143 -7.2744324553178235 -11.00662616913421 -5.545106309421839 2 -1 4
650 1 -0.003225051261370255 -12.854324505430164 -13.32698435858621 -1.7646706508266004 2 -1 4
700 1 0.0007526318158571788 -12.638604372496836 -8.002281160978667 -0.7056205218797924 3 -1 4
652 1 -0.0004986833406465142 -12.342154611719515 -12.235651159494244 -2.5543433131700173 2 -1 4
653 1 -0.001575521786412308 -12.102750568276312 -10.583291496190178 -0.4499287377234289 2 -1 4
654 1 0.003473609864194951 -11.987482453783924 -9.475476695601593 -2.5834099213098103 2 -2 4
659 1 0.002508578293245134 -8.78331226817367 -13.43643161714222 -2.7965815892680297 2 -1 4
655 1 0.0003012595393167578 -11.277754870332897 -10.354541238386332 -1.6596467845753207 2 -1 4
657 1 0.001250184614237471 -9.865968466314627 -9.850658866453152 -1.1336718553838967 2 -1 4
663 1 -0.002074642192844842 -7.4050547005407195 -13.366201322104951 -2.2076110628461123 2 -1 4
662 1 0.003602201869643613 -7.794507045671638 -9.530133329468386 -2.1852992533445175 2 -1 4
660 1 -0.001686028436726113 -8.542470657125715 -10.409272292284015 -1.4907421183446203 3 -1 4
656 1 -0.000464665296655585 -10.955388111715212 -11.83879244424886 -2.3285744369491077 2 -1 4
658 1 -2.580903376737248e-05 -9.82516961301634 -12.60599438511202 -2.4676165348313575 2 -1 4
661 1 -0.002816817755722283 -8.006584227798527 -11.420076269187513 -0.6654530135874985 2 -1 4
710 1 -0.006326175802142772 -8.43470250656276 -8.271891715145724 -2.2466970164037825 2 -1 4
707 1 0.001005271601845537 -9.694411004425982 -8.15657874411572 -1.4066631599220525 2 -1 4
701 1 0.001453715578805526 -12.117565211394748 -8.052773827928306 -2.250479765473141 2 -2 4
714 1 -0.04235102333896571 -7.174306001377221 -7.579215251466948 -4.119868161317692 2 -2 4
651 1 -0.0005837310947374719 -12.86168652675505 -9.97453739248824 -3.5249019115511295 2 -1 4
705 1 0.002514411940785513 -10.662593012459158 -7.457886535549346 -2.282448972628158 2 -2 4
711 1 0.02872048119077662 -8.114358857591872 -7.273350333050651 -3.127011822933353 2 -2 4
388 1 -0.0009003686880797376 -13.029464763427615 -8.14456882236485 -5.2489874190789365 2 -1 4
699 1 -0.001747798737219624 -13.077839141001531 -7.2643848254789365 -3.002532888394578 2 -2 4
649 1 -0.001287746517788374 -13.156390375152617 -11.301331484583185 -3.269431403135453 2 -1 4
390 1 -7.662493765936071e-05 -12.8690385873618 -7.097468971128938 -4.358016919218237 2 -2 4
339 1 -0.0002000981813087312 -13.301021436332741 -9.468690534562597 -4.785129634345323 2 -1 4
648 1 8.978567126810902e-05 -13.463386861609399 -10.168227011619091 -0.3656793492475767 3 -1 4
394 1 0.2678794895232582 -6.919362094806207 -6.9025169861639375 -5.330084204317222 2 -2 4
664 1 -0.002387670213487684 -6.880885806968881 -12.399742663289235 -1.0578052731670216 2 -1 4
397 1 -0.0714137032455856 -6.065774445546116 -7.464192765709524 -6.280143067293744 2 -2 5
665 1 0.001259787080328676 -6.656488646717089 -9.747858931596891 -2.9410018977283894 2 -1 4
398 1 0.01102274997931599 -5.136837046078066 -8.550704260441773 -5.887307319419037 2 -1 4
357 1 0.0004748982743714505 -0.3350483601211032 -10.867426226519669 -5.849987951365312 2 -1 4
356 1 1.214308088498192e-05 -0.3840359424000237 -12.297724976847466 -5.658488714568953 2 -1 4
716 1 0.003359124870248293 -6.3651180743149816 -8.729927041154456 -3.9001694495089687 2 -1 4
343 1 -2.25847974026222e-05 -5.858494181607151 -11.375118202607105 -5.42366236109357 2 -1 4
350 1 0.0002567842566778798 -2.6243355654067706 -10.181239785224465 -5.160606514244187 2 -1 4
352 1 -9.67386965276644e-05 -1.156758331647037 -9.99486715846595 -4.9773323233921225 2 -1 4
346 1 -0.006013429244016117 -5.360813982424375 -9.203115298658815 -4.668706960714264 2 -1 4
354 1 -0.0001636279902425299 -0.46541630232944975 -13.237780688982784 -4.501011371056819 2 -1 4
666 1 -0.00202596407606501 -5.789900591231644 -10.876751011273889 -2.989053538110964 3 -1 4
668 1 0.002670822593335658 -4.9234163886304 -10.606025279555446 -4.213276081518629 2 -1 4
667 1 -0.002792683342286269 -5.637351073282738 -11.583257648368894 -1.7493397173733207 3 -2 4
670 1 -0.0003457195614575172 -3.4182598578191534 -10.445295529514262 -4.001721733031765 2 0 4
674 1 -0.0001822176461598532 -0.7729209693827812 -9.240816504388793 -3.7654117159185247 2 -1 4
673 1 -0.001726586209752766 -1.395285969370585 -9.770076658205612 -2.5503456957513606 2 -1 4
669 1 -0.002525790500376133 -4.45689186079785 -11.443751523651986 -1.007639718569866 2 -1 4
675 1 -0.001926179311181907 -0.5124028189199308 -9.364078234393384 -1.4730728180797161 2 -1 4
671 1 -0.002378110549072818 -3.265319722919143 -10.589609531109216 -1.3429634394649383 2 -2 4
672 1 -0.002940771517508978 -2.7723031678937424 -10.339558171738506 -2.6747782505778392 2 0 4
722 1 -0.00213479782592875 -3.60710634984585 -7.525960526002689 -0.5314470308240775 2 -2 4
719 1 -0.0003186139754136098 -5.061673095769764 -7.391824204434873 -0.5643085564430166 2 -1 4
30 1 -0.0004178093326868311 -0.011367303551061525 -13.067485461906921 -9.404944514343715 2 -1 5
403 1 0.0003422081242407324 -2.2485493198683386 -5.607071954645523 -5.14990484730255 2 -1 4
698 1 -0.002910064002462036 -13.277002777322712 -4.852623722866738 -2.381093424237587 3 -1 4
429 1 0.0004987037389750648 -12.274102277137565 -3.8561663831949744 -5.8671601228851324 3 -1 5
432 1 0.03948033311954907 -10.60814586872931 -2.1276269517659916 -5.912680076571873 3 -1 5
438 1 0.07347414317359227 -7.714379386659267 -2.925705268679449 -5.792771856623769 3 -2 4
387 1 0.002513297945282877 -12.76609518556191 -5.177434052390243 -5.810466043389956 3 -1 5
392 3 -0.5250875457708822 -7.748287943395906 -5.7202832742644265 -5.592466408959869 2 -2 5
440 1 0.004218435759870293 -7.538260925713077 -0.3461652451452757 -4.496614846328331 2 -2 4
431 1 0.001858613554524702 -10.896785324000648 -3.4834176818917246 -5.552016495684415 3 -1 5
434 1 -0.002223077955202777 -10.144414830713087 -1.222893137180625 -4.8564377302841555 2 -2 4
391 1 0.001094603035959745 -12.24932138938373 -5.887565381465266 -4.729723188074187 3 -1 4
436 1 0.00417078824663974 -8.380933250230274 -2.780221622983145 -4.50043208804634 2 -2 4
433 1 0.0311109175051749 -10.271644540157556 -4.406304075007435 -4.549457653215104 2 -1 5
761 1 -0.003741856192263023 -12.407793874390617 -4.201783671416244 -1.396580437396132 2 -2 4
704 1 0.007513435713099018 -11.014264103254355 -5.550433464499605 -4.068511206795224 2 -2 4
769 1 0.0007903578354465732 -8.71476923561124 -1.4199823802599454 -4.011092545116922 2 -2 4
768 1 0.01985118115002894 -9.117170888296503 -3.8549855109965403 -3.8606148850058943 2 -1 5
762 1 -0.002975506236529684 -12.367712511814943 -2.8054485682565744 -1.8111803622105196 2 -2 4
764 1 -0.004191835530614703 -11.373013201885117 -1.251162590355019 -3.85601265626857 2 -2 4
702 1 -5.80488676462862e-05 -11.804588738361991 -4.693015151775743 -0.14274956236051217 2 -2 4
708 1 0.03168382177127452 -8.927362467334685 -6.165573205509742 -3.1539535379284995 2 -2 4
706 1 -0.003667873472194032 -10.284377071407498 -6.349386858958114 -3.083690277948989 3 -1 4
709 1 0.0232115304978702 -8.441476644053537 -4.863889958334781 -3.0265931424099612 2 -2 4
763 1 -0.003463154203982901 -11.612059476147873 -1.5586126842254728 -1.237106929727025 2 -2 4
713 1 0.0006263932513398303 -7.28116639482887 -4.6672206868425885 -2.242465031780158 3 -1 4
765 1 -0.001291437045776379 -10.826905211626888 -1.1341260338058028 -2.5786555551025234 2 -2 4
766 1 -0.003579970576859121 -9.349615298699039 -1.057678693748798 -2.6827731493611964 2 -2 4
760 1 -0.002053062777999191 -12.708864171594222 -1.7480556757934664 -4.123085669564395 2 -1 4
770 1 -0.002506342900950686 -8.67515153022256 -0.4707924214837611 -1.597283656951003 2 -2 4
759 1 -0.002600025895952034 -12.94812479617344 -0.7972717808251062 -0.8467274003442444 2 -2 4
767 1 -0.0009278605826509006 -9.223766572577048 -0.37974609497085154 -0.22661204396849577 2 -2 4
758 1 -0.003015727220848195 -13.167860635519528 -2.694922273248782 -3.0314591452972284 2 -1 4
703 1 -0.002096699590092455 -11.258704457858931 -6.064987521116518 -0.09536405159398598 3 -1 4
712 1 -0.003811957796271127 -7.445973733329715 -5.918258550698162 -0.013079202693123904 2 -1 4
453 1 0.0014006784428694 -0.2406349028836683 -1.0016720306551523 -5.781620973154266 2 -2 4
451 1 -0.0004060362472424507 -1.6165121000988538 -1.2445961222160147 -6.312535095301852 2 -2 4
723 1 -0.001206922939062605 -2.5857351320137916 -6.3897538386465165 -0.49506280753685417 2 -1 4
776 1 -0.0009537050243990895 -5.235551525061016 -3.4629966394070806 -2.8174550033851418 2 0 4
784 1 -0.0001318053868046704 -0.8027908089292648 -1.1156203126353326 -1.4537196184502168 2 -2 4
721 1 -0.0002921017244371521 -3.7455280302554357 -6.540540854900742 -3.525291608174218 2 -1 4
727 1 0.0003252888711529726 -0.9246854385428183 -4.7129048585762305 -1.7383415649845997 2 -1 4
399 1 0.005126006080546542 -4.659305728225041 -4.87849865337895 -4.881241456600445 2 -2 4
779 1 -0.0009002155506824989 -3.159473724261778 -0.03388081178596103 -3.382822267188848 2 -2 4
781 1 -0.001593424041755519 -2.744116671745923 -2.314740825730606 -2.750552015404015 2 0 4
785 1 0.0008095874852654429 -0.34889536643982666 -4.251039965815719 -0.46673669915288585 2 -2 4
777 1 0.0002051184708410959 -4.128568797885286 -2.4077598866253798 -0.8545633522937148 2 -2 4
726 1 0.0002376873051821576 -1.614797064093418 -5.541898174380856 -3.8337179558398695 2 -1 4
717 1 0.002768202063517616 -5.625434254586159 -6.438755360222844 -1.5246375348276189 2 -1 4
442 1 0.009949135613547709 -6.369765183615639 -0.9349280279049133 -5.308341886285868 3 -2 4
725 1 -0.0006609863349303184 -2.0810824860147044 -5.647877611263925 -1.6047873209954648 2 -1 4
444 1 0.00578067371648857 -4.968370880622507 -3.917660857807748 -5.836476307348588 2 -2 4
783 1 0.0004709940377752193 -1.953566242702431 -2.082331028676803 -1.533684551800297 2 -1 4
447 1 0.0003358145178107598 -3.9808187213283173 -1.2324384960097667 -5.873719379406753 2 -1 5
724 1 1.160171598815415e-05 -2.416139091731237 -6.268944419801921 -2.89301699952512 2 -1 4
775 1 0.0001755989548741267 -5.403603633439957 -2.043198135790588 -0.24064246509847997 2 -2 4
720 1 -0.001738109778784917 -4.920301493068864 -6.066648234943165 -2.806559775730035 2 -1 4
445 1 -0.002222730448836453 -5.008546220447222 -0.6226206136365491 -5.090957204866622 2 -1 5
441 1 0.0009086471084033473 -6.585214586873005 -2.1325214404423 -6.04456412191111 3 -2 4
774 1 0.001268607484988759 -6.4470911144743335 -3.434856427247018 -2.033062951176243 2 -2 4
715 1 -0.001863957395901455 -6.853576676505564 -5.770490189990128 -1.3494520276819042 3 -1 3
780 1 0.001698903470490443 -2.7747731509063662 -2.2572760548049313 -0.3150707499310066 2 -2 4
449 1 -0.001874506609568172 -2.637970905047254 -1.363968022060563 -5.274503459776918 2 -2 4
773 1 -0.003161634637549347 -6.5149064126780205 -2.8194960429411697 -0.7303297107705262 2 0 4
718 1 0.01092722486759723 -5.163002008859156 -4.80106218299008 -3.4737567357387213 2 -1 4
401 1 -0.00346779484305108 -3.6283048732594914 -5.979356914190446 -4.866278275575002 2 -1 4
778 1 -0.00127192893033069 -4.088806730190868 -2.6973087128554027 -2.282008600139534 2 0 4
782 1 -0.0008650267293880201 -2.4677962481679767 -1.2729268616121203 -3.7795134817914366 2 -2 4
999 1 -0.002780500654033525 -2.643461661890056 -9.989687511357488 -0.12453639019009977 2 -1 4
1097 1 -0.003127593289852158 -10.449921848678986 -1.5354053757664108 -0.029689954340417657 2 -2 4
1328 1 0.00379487637973986 -7.728554444402093 -12.015794512439191 6.1219970611636665 2 -1 3
1321 1 -0.00156824913410589 -10.136002834861813 -9.38761596814565 6.210560581081944 3 -1 4
1325 1 0.01512453267201016 -8.089551814256303 -11.854894506234713 4.721892264176544 3 -1 4
983 1 -0.004936912489745095 -9.003837808520776 -9.437970811056292 4.228204400962854 2 -1 4
1324 1 0.003249642432382545 -7.914842214495257 -10.421969520443755 4.287284272884003 2 -1 4
1319 1 8.358068490917428e-05 -11.170701087802751 -10.19630159973228 5.594032282505127 3 -1 4
987 1 -0.0008474745911144881 -8.714719371685339 -12.909345083585817 3.942988973136229 3 -1 4
1376 1 -0.001361803987321553 -9.456448844743614 -8.474248092411088 5.237540982197546 3 -1 4
976 1 0.0001503509514820464 -11.74412895955546 -10.157890605941516 4.22728969268673 3 0 4
978 1 0.0001009792579425989 -10.997399530621555 -10.164091510584257 3.0056634830524747 3 -1 4
979 1 -0.002396209742419841 -10.782559100909745 -13.136326977616868 2.9881041320665656 3 -1 4
981 1 -8.006293229782108e-05 -9.627620678904375 -9.611355118722614 2.8983122285678284 2 -1 4
982 1 0.0001069928643388576 -9.407280490406553 -12.627831642152035 2.6807495537326407 3 -1 4
974 1 -0.001189067759611914 -12.004835256683215 -12.636802134909342 2.5868491533182993 3 0 4
988 1 -0.002932986632964079 -7.090876881196716 -9.542488631147569 2.19833381949498 3 -1 4
975 1 -0.001302138963408916 -11.911569756811266 -11.090861393964937 2.0936724041587205 3 -1 4
986 1 -0.001475442464107204 -8.494281609827272 -9.166830751629119 1.9555762733211157 3 -1 4
984 1 -0.0003132632861578069 -9.014322714845418 -12.617896262425457 1.2660364600427005 2 -1 4
1046 1 -0.002147288125637616 -8.468013304962493 -8.10220966102074 0.9442157696894125 3 -1 4
1036 1 0.0005268015446841384 -12.59180362672895 -7.198384436314249 1.7125440073821938 3 -1 4
1315 1 -0.001196402680340151 -13.164753933097078 -10.552156902917542 4.329000701394479 3 0 4
977 1 -0.0003428380473376978 -11.251267107347495 -10.835155497489213 0.6932988886544429 2 -1 4
1048 1 -0.0006954388774781939 -7.307527962555744 -7.313310731061032 0.4585508236908069 2 -1 4
985 1 -2.572514225763697e-05 -8.891656168013021 -11.396891301575451 0.46437552969808493 2 -1 4
1038 1 -0.00150940216702021 -12.159273791283447 -7.2060220115186135 0.3007424633325382 3 -1 4
1377 1 -0.003049036034136338 -9.302288428510977 -7.032104208122345 5.037068197972777 2 -1 4
1314 1 0.0003070487002187205 -13.389907365122914 -10.880389558827538 5.641721844375665 3 -1 4
973 1 -0.001031227969203217 -13.400223937177431 -10.608511831450471 2.073208378423203 3 -1 4
980 1 -0.0008147395980995994 -9.953406105428513 -10.34463635919214 0.27256035090758246 3 -1 4
989 1 0.03268090237223503 -6.771555466264806 -9.798874585131315 3.623936408808662 2 -1 4
1042 1 -0.003247286217294134 -9.533886337239968 -7.661538549048333 0.04974643871489981 3 -1 4
1317 1 -0.0005087778683670052 -12.111079365136227 -11.102778243293251 6.2664366577293595 3 -1 4
1381 1 0.01272865759274425 -6.182041148771533 -8.669194857646847 5.875588639901137 2 -1 4
1382 1 0.02418109639243772 -5.918193029216958 -8.833869821976837 4.313477074882355 2 -1 4
1341 1 0.01822753208492343 -1.135241336672948 -12.911062793003598 6.249568062364853 2 -1 3
1340 1 0.002371468264600426 -1.2832085364480381 -11.47479839851606 5.7079361019684836 2 -1 3
1334 1 0.165229108705702 -4.021509333544785 -12.837270652897843 4.898964066737877 2 -1 4
1342 1 0.02115444672954589 -0.8825723661349762 -10.967254207101902 4.492636988077317 2 -1 4
1332 3 -0.4860953277942771 -4.499368111514665 -11.497933055611187 4.356746245294664 2 -1 4
1003 1 0.01680859688550937 -0.4729799992517112 -10.133448462360782 3.42751408482877 2 -1 4
995 1 0.2360196839817569 -4.480315272243368 -12.004186342011304 2.9377604393057446 2 -1 4
1051 1 0.007420961899213626 -4.839112619814921 -8.145032626431778 3.6320004329977547 2 -1 4
996 1 -0.08272023985951761 -4.413620400895303 -13.48744761084561 2.8804218422880936 2 -1 4
1053 1 0.0187743211903361 -3.939944071478788 -8.81349652062355 2.6455841696144056 2 -1 4
1002 1 0.007818886489584488 -0.9251107042917823 -10.090410841702596 1.920950350944434 2 -1 4
994 1 -0.04995688119679584 -4.488951354684136 -11.28887985893967 1.7845389296146 2 -1 4
993 1 0.02782416281423404 -4.801740368709545 -9.797555394371209 1.9171004717461475 2 -1 4
1057 1 -0.005874866586351227 -3.0762472462551234 -8.173234280225074 1.668531074651371 2 -2 4
991 1 -0.00609661002488962 -5.995025438218286 -9.208277641685022 1.2986995100145435 2 -1 4
1000 1 0.005429628494836729 -1.9791915623943073 -10.646340036139003 1.0249671812296643 2 -1 4
1001 1 -0.004193426195082405 -1.6740086874457578 -12.044475121532084 0.6853811473200793 2 -1 4
1004 1 0.03611298003354929 -0.23669821820930714 -12.399791608769258 0.5834850538588974 2 -1 4
997 1 0.006057158694005259 -4.234176236630647 -12.123274185451777 0.43462822757402364 2 -1 4
992 1 -0.01114935038965006 -5.008279651535275 -13.50449624868106 0.3812672508296924 2 -1 4
1056 1 -0.002575846038096855 -3.0888983459506782 -8.642110360580194 0.26942485465567145 2 -1 4
1049 1 0.0008739841059262309 -6.015131207065657 -7.982414169767552 0.4747331537779136 2 -1 4
998 1 0.002767830210639897 -2.8587581740998953 -12.810808012439656 0.32276029832257436 2 -1 4
1058 1 0.001639985595246696 -2.1836001371156417 -6.999301205431146 1.7801855012990924 2 -1 4
990 1 0.002151650429777566 -6.336456239562177 -13.123096663417334 0.08746048945091367 2 -1 4
1391 1 -0.0006435974480448886 -2.1183255949202273 -6.724021116534663 5.554519575002699 2 -1 4
1610 1 -0.06774111775464201 -2.2389900206735884 -13.619939567603673 6.006746419721944 2 -1 3
1039 1 0.007969276658703199 -11.879574518895978 -6.627839771500769 2.825863605282974 3 -1 4
1102 1 -0.000552870516613034 -8.072914023760184 -0.31797857497398674 0.7678156899445554 2 -2 4
1375 1 0.001086987231911474 -9.836451872135948 -5.901154690385543 5.8827715905305045 3 -1 4
1439 1 0.009255789739986814 -7.449721941479876 -3.195897816829053 4.94842619903549 2 -1 3
1436 1 -0.04175243282382802 -8.224928812489665 -2.027736042938429 5.00510289774879 2 -2 4
1103 1 -0.0101448088076117 -7.945417258684929 -4.221183602838776 4.153742950710177 2 -1 3
1045 1 -0.003115889949346931 -8.719490149947493 -6.424606211028912 3.8422831103889106 2 -1 4
1047 1 -0.0009179119950530716 -7.512844339639949 -5.6129142909907 3.988670955504121 2 -1 4
1432 1 0.2579364078664126 -9.498715202991537 -1.8955179517475678 4.357810425960073 2 -1 3
1098 1 -0.06149501058602762 -9.956823711257734 -2.92618409881306 3.5516274714973886 2 -1 3
1100 1 0.01315175690498213 -9.163733452741669 -4.0800664004908835 3.5026444213082453 3 -2 3
1043 1 -0.00192661429855016 -9.605324601065462 -5.429619565775544 3.224841949936099 3 -2 3
1093 1 -0.06552134288190287 -11.595530207836184 -4.436266200239155 3.258162299502702 2 -1 3
1094 1 0.09633665220809152 -11.251124405609835 -3.0911791287308947 3.046365885213458 2 -1 3
1040 1 0.00204652339485881 -10.911296687602935 -5.531242806008139 2.7088175703017257 3 -2 3
1437 1 -0.03600291414170161 -8.155318623482707 -1.0195023083382093 5.9905481695154155 2 -1 3
1037 1 0.2891133871776873 -12.511759309184125 -4.8827987572751415 4.10070279363344 2 -1 3
1092 1 -0.007646922502350242 -11.540365570716094 -2.734557292078007 1.6661220079844234 2 -2 4
1095 1 0.01303568475688164 -11.273267350700232 -1.4034564601922597 1.2177977551830637 2 -2 4
1035 1 -0.08099032406025836 -12.811607440131027 -6.179829684505652 3.8265483649476213 2 -1 3
1431 3 -0.4975960986121571 -10.19105179248498 -0.6181834934807107 4.673981656245379 2 -1 3