LAMMPS data file via write_data, version 29 Aug 2024, timestep = 1000, units = real

1977 atoms
3 atom types

-11.787898648530039 11.787898648530039 xlo xhi
-13.59419686679966 13.59419686679966 ylo yhi
-14.66167423613323 14.66167423613323 zlo zhi

Masses

1 12
2 1.008
3 15.999

Atoms # charge

8 1 -0.0007125571949116345 -8.14803150223894 -13.269835100610031 -13.29126007531554 3 0 -1
5 1 0.02454138462082124 -9.478171175123489 -13.138920026685959 -12.943106314855427 3 0 -1
14 1 -0.05074405152628855 -5.353489289333624 -13.499922291050767 -12.503382099836614 3 0 -1
9 1 -0.001948013160214198 -7.693610014752428 -12.23603638434341 -14.224773888232193 3 -1 -1
15 1 0.008690216902308399 -5.325130009393124 -12.210064239929768 -13.252548165878501 3 -1 -1
26 1 -0.0008105991447240404 -0.7456180798124006 -12.07613903509999 -14.323812181023708 3 0 -1
3 1 -0.0324010916710001 -10.171318282830613 -11.914351986459247 -12.519470672945346 3 -1 -1
19 1 0.0006806623682248623 -4.062143529881892 -11.745254775585238 -13.810690844606082 3 0 -2
11 1 -0.006302937678773449 -6.449884006566563 -11.529435692817245 -13.857264346796761 3 -1 -1
6 1 -0.002729614902081737 -9.218445931597094 -11.479799834367842 -11.328519867369927 3 -1 -1
17 1 0.03535750913879281 -4.579453102377036 -13.57683755581966 -11.283946377114612 3 0 -1
4 1 0.02500175202622474 -10.23015777864018 -10.807970371199255 -13.658750084975807 3 -1 -1
28 1 -0.006937922690143147 -0.11452814718185245 -10.805813094859412 -14.467553573015039 3 -1 -1
285 1 -0.003018195036955981 -8.726744730017531 -12.2641969768435 -10.229341133500167 3 -1 -1
290 1 -0.002696564269158885 -6.49014515315683 -11.379226530808934 -10.443480528400903 3 -1 -2
295 1 -0.005160471036970461 -4.1503370985307955 -12.311852503712448 -10.522931896170688 3 0 -1
10 1 -0.001773087715341851 -6.978312352050058 -10.219707983656914 -11.110700212930732 3 -1 -1
7 1 -0.001297604230259475 -8.476720416439798 -10.247834646068782 -11.190331566304728 3 -1 -1
18 1 -0.00249344574815144 -4.472115333389712 -10.290938343701816 -14.081434313674073 3 -1 -1
287 1 -0.001620254617945068 -7.3723423676391855 -12.393947302084388 -9.82172937036838 3 -1 -1
291 1 0.001014045975364298 -5.095298657792783 -11.361760421375717 -9.93954978089727 3 -1 -2
298 1 0.001999700366654575 -2.842936966428013 -12.327070130807405 -9.85202867090193 3 0 -1
282 1 -0.00141476677259946 -9.599358291695488 -13.232260737698342 -9.407023795314174 3 -1 -1
2 1 -0.007994430797656819 -10.32213137163024 -9.399155517756169 -13.419649198857751 3 -1 -1
20 1 0.0001286546666323107 -3.946971364631617 -9.374914230458751 -13.057800613734626 3 -1 -1
21 1 0.001536395396433941 -3.8571667191222927 -9.337497502183622 -10.491620271767701 3 -1 -1
24 1 -0.001033557353046201 -2.4722154645614207 -9.571424520790625 -10.562708269437437 3 -1 -1
293 1 0.001176297133866466 -4.618305106433469 -10.077823150697224 -9.386171114529144 3 -1 -1
16 1 0.0001233136762824761 -4.605393175669892 -9.314287010600918 -11.734085664611175 3 -1 -1
302 1 -0.001824051392698702 -1.7229621964938246 -9.947412001196085 -9.310689530804655 3 -1 -1
27 1 -8.508333735139997e-05 -0.23768477596543214 -9.444142597560727 -11.67062411698116 3 -1 -1
23 1 -0.0007613347019251801 -2.459659906697338 -9.38447513675104 -13.002661907079384 3 -1 -1
305 1 -0.001869810251866772 -0.510551494813333 -12.109953888730079 -9.105745489707807 2 -1 -1
12 1 -0.001137957628291306 -6.0572777185085265 -9.115033362076339 -11.457780295709881 3 -1 -1
25 1 -0.0004318961920444613 -1.676357598536704 -9.425468775649541 -11.750654018569822 3 -1 -1
64 1 -0.002356712139017343 -9.105309813080673 -8.907250064814 -11.257277566769687 3 -1 -1
301 1 -0.0007767174379931987 -2.0730124928429774 -11.355095272747644 -8.97871239866469 3 -1 -1
289 1 -0.001252712535801951 -6.874308356397114 -13.482387908472232 -8.932775019079237 3 -1 -1
79 1 -6.246987622507069e-05 -1.8663976105852331 -8.8512622835821 -14.229662912473167 3 -1 -1
280 1 -0.008436213640308079 -11.144378363251494 -13.245245946574727 -9.888302054493359 3 -1 -1
62 1 0.003441147374932993 -9.956440017452483 -8.507185754872133 -12.338633578992912 3 -1 -1
304 1 0.0009666717775044346 -1.2871288302524704 -8.887477778926458 -8.427488872483188 3 -1 -1
70 1 -0.0009660118266182696 -6.330193866939654 -7.885055544250397 -10.784309186823764 3 -1 -1
66 1 0.0007264665677656802 -8.703339744605904 -7.70427125931226 -10.524068670823556 3 -1 -1
350 1 -0.002476594870476523 -0.68247749810131 -7.549210531327418 -8.58505679212152 3 -1 -1
294 1 0.0006089631556620151 -4.253009659590144 -10.154049141634792 -7.9618607452092025 3 0 -2
339 1 -0.0003392509090562705 -7.423032396305507 -7.60710330911581 -9.824770866698326 4 -1 -1
284 1 -0.002446375870666633 -9.49136441243839 -12.913312978170431 -7.809522183130381 3 0 -1
77 1 0.0007841074426631432 -2.204956886546281 -7.373185158082677 -14.420816251726036 3 -1 -1
335 1 0.0006442951514015922 -9.445961845054264 -7.191579642974541 -7.634254916666355 3 -1 -1
297 1 -0.000259215782273824 -3.0903200003476883 -11.105446587696898 -7.597951953612776 3 -1 -1
1 1 0.2380056155003218 -11.609679369041713 -12.288475675514848 -12.098921131483621 3 -1 -1
61 1 -0.0009653499456775093 -9.80928057595978 -7.0092929307027925 -12.362946370474523 3 -1 -1
75 1 -0.002285219234309762 -3.6884053778019705 -6.954480856713971 -14.46480156942859 3 -1 -1
58 1 0.003543469378514321 -11.745039728492669 -8.93551320995877 -13.986496741997598 3 -1 -1
345 1 -0.002014831793343035 -4.11495026444592 -7.215477830281888 -7.511444588548989 3 0 -2
71 1 8.508263146553979e-06 -6.015144689263031 -7.001358410387402 -13.880840107443529 3 -1 -1
288 1 -0.0004299847329262661 -6.9863652446044755 -13.428609058476631 -7.4486274687917975 3 0 -1
13 1 0.0004356573861668579 -5.871763789647096 -10.34552863363124 -14.532031558769312 4 1 -1
73 1 0.0004919573241708736 -4.610909774923962 -6.844825431163063 -13.388191319676054 3 -1 -1
347 1 -0.0001274953342976365 -2.8589516408410045 -6.830412877245039 -9.800600068782849 3 -1 -1
72 1 0.00221779736249954 -5.351806218122123 -6.788933641334011 -10.8772646053864 4 -1 -1
74 1 0.001209165663679738 -4.288059281839578 -6.699866341411353 -11.894631768424018 3 -1 -1
1006 1 -0.007562394190070269 -0.8098685634333762 -0.15640857695258603 -0.1909472455968313 3 -1 -1
126 1 -0.0007612389052066744 -0.028575770564831515 -4.039284363863796 -11.380599731420567 3 -1 -1
393 1 0.006466037431707969 -5.348104427739705 -1.9592855400058227 -7.299670477068012 3 -1 -1
333 1 -0.003375521738737643 -11.658163750159634 -11.815406414348166 -9.944059394035389 3 -1 -1
346 1 -0.001177086702226954 -3.9223180081408398 -6.709008685753054 -8.887519433675667 3 -1 -1
107 1 0.003102171992592322 -11.233538841318786 -3.154061332781419 -13.438532598865182 4 -1 -1
119 1 -0.006467371857016752 -4.980261733129636 -3.893913108264236 -14.435851883194816 3 -1 -1
391 1 0.252992584424477 -5.639015721083939 -1.748452495950712 -9.708023006495747 3 -1 -2
110 1 0.000847514236919018 -9.625759084423668 -1.2774162305997514 -10.528322484380846 3 -1 -1
340 1 0.001204828024636454 -7.492797275931166 -6.347864504662816 -9.043529929962428 3 -1 -1
336 1 0.0004101732858042152 -9.143743524823714 -4.784277844493582 -7.857476418845891 4 -1 -1
115 1 -0.06295996591872846 -5.991020290629367 -3.1345352547562104 -12.212017266484722 3 -1 -1
59 1 0.0002931597509810736 -11.279224820957856 -6.3613068545988645 -14.152103456173846 5 1 -1
384 1 -0.002653843673557881 -9.642718222279447 -1.3065859222080736 -8.229336555580186 3 0 -1
122 1 0.005661156826392127 -3.975553294283988 -2.976764382530284 -13.926185124859144 3 -1 -1
125 1 0.0007257127768520374 -0.23835457297624352 -3.2323931264255084 -13.844012310880373 3 -1 -1
390 1 -0.007601009950245343 -5.999804879808529 -3.2809475290021926 -7.42832482819947 3 -1 -2
383 1 -0.002301168411447056 -9.60676808789618 -4.2563064499676475 -10.174817171532569 4 -1 -1
81 1 -0.001507620806282028 -1.4133391187206783 -5.2341749078043325 -14.419119550400625 3 -1 -1
63 1 -0.002199636191223382 -9.217347102651793 -6.5390249343683315 -11.171661459387213 4 -1 -1
344 1 0.00155947491544842 -5.1452738332763905 -6.164623377216476 -9.55103764435964 4 -1 -1
123 1 0.001525638435411671 -2.5935953094457105 -3.011406755328778 -14.440624705843543 4 -1 -1
78 1 -0.001866422095803452 -1.8143385234264429 -6.0722518209364305 -12.039110444644058 3 -1 -1
80 1 0.001339729842597961 -1.6004111888964871 -6.3497921572013825 -13.48554243287377 3 -1 -1
60 1 -0.002207753483786688 -9.796772189893366 -6.326349786403948 -13.659292091054237 3 -1 -1
388 1 -0.0602714164500369 -6.144011109262365 -3.0726061898009576 -9.759875330483958 4 -1 -1
113 1 -0.008092386437964859 -7.58696649513162 -4.534211172437471 -11.62864137772804 4 -1 -1
109 1 0.006264324201052404 -9.95570196944961 -1.6387209061414865 -11.92400231549569 3 -1 -1
114 1 0.0428063215785656 -6.790876474504285 -3.5225961865504676 -11.026666239100255 4 -1 -1
108 1 0.015002358596586 -11.205601837706213 -2.269406535600096 -12.259042079702098 4 -1 -1
117 3 -0.5213995143662841 -5.506688911310992 -0.9890594843810856 -10.995927402708734 4 -1 -1
120 1 -0.05202388041254612 -4.424432160001531 -1.7152681928862172 -13.1952974244803 3 -1 -2
348 1 -0.001829779479529697 -1.5794743973442316 -6.5691540427428645 -9.177436333744867 3 -1 -1
111 1 0.0271015282499487 -9.14310342445844 -0.9126172963036865 -14.340713376965795 3 -1 -1
389 1 0.01128592376287618 -6.058119368017156 -4.049181976766638 -8.666575176752012 4 -1 -1
382 1 -0.003323489267420477 -9.971917545452396 -2.094018668424628 -9.421052215091901 4 -1 -1
381 1 -0.003491356046729739 -10.32931181277189 -3.5796978981305685 -9.340095858783087 4 -1 -1
349 1 -0.002113183554041245 -0.9347522731430242 -5.348325893926461 -9.744464223178259 3 -1 -1
118 1 0.2575388707579738 -5.264841257683065 -1.9635326446576968 -12.122376206331891 3 -1 -1
121 1 0.03773079119232715 -4.009769630490097 -0.3471925587730347 -13.547843638271804 3 -1 -1
82 1 -0.001469255094002083 -0.9308583315523098 -5.1833900956846435 -11.231864039765382 3 -1 -1
67 1 -0.001890806399143199 -8.514287054379693 -6.245667481137287 -14.328016437875453 3 -1 -1
69 1 0.002184179911571674 -6.915441599021435 -5.032119347468317 -12.879515044855303 3 -1 -1
112 1 0.02055760611986763 -9.156524373137758 -0.9374679992997503 -12.92725754426499 3 -1 -1
342 1 -0.001307914755599045 -6.2829870421427705 -5.53194502449233 -8.860906318363288 4 -1 -1
392 1 -0.04894578838159842 -5.424333075752802 -1.1143645526273147 -8.488288731725252 3 -1 -2
68 1 -0.002336080530938919 -7.255226656478148 -6.273461489799489 -13.528791906763539 3 -1 -1
380 1 -0.002764999064581268 -10.482529600497601 -4.210523079396266 -7.91506583457603 3 -1 -1
337 1 -0.0004019120874801697 -8.770223491041406 -6.142183862820765 -8.356001636605054 4 -1 -1
116 1 0.009142694649136619 -6.003703628824263 -4.0017446994669434 -13.403101817492297 3 -1 -1
65 1 -0.001181487867956375 -8.81260302545249 -5.105713318905005 -10.915866293262404 4 -1 -1
76 1 -2.599255033193873e-05 -2.9672317959035066 -6.517810452128963 -11.284028404971714 3 -1 -1
124 1 0.0004612617149490836 -1.5708333556428613 -3.8664053135327645 -13.863437968502819 3 -1 -1
299 1 -0.0006345768678349337 -2.7302311156700547 -13.51476593990222 -6.878647686649382 3 -1 -1
561 1 0.001377015497279959 -9.58272140128664 -12.68868315005401 -4.744598160190948 3 -1 -1
286 1 -0.0005892606750723187 -8.263042992976672 -12.763416711808915 -6.987192008704762 3 -1 -1
570 1 0.0007787061084052992 -4.684854848914545 -12.445263842804954 -6.028452968846944 3 0 -2
296 1 0.0002695643864963626 -3.5930058372470217 -12.425451466131204 -7.002896006528745 3 0 -1
306 1 0.001092485293622745 -0.3321598977698077 -12.55982951939082 -6.8116630755379735 3 -1 -1
563 1 0.001119299446866832 -8.335526579790356 -12.448609346665984 -5.547476344145677 3 -1 -2
578 1 0.000477612773613724 -0.3843025077283375 -12.043960026140336 -5.455887960708747 3 -1 -1
566 1 0.001061507323635753 -7.115122210727305 -11.907666322842038 -4.904017141715526 3 -1 -2
577 1 -0.0003297589304640802 -1.6823817984780707 -11.80975732347106 -4.741734250048152 3 -1 -1
568 1 0.0003959022550633351 -5.8925210896729485 -11.600478531065832 -5.691990829622657 3 -1 -2
576 1 0.0008879433071863133 -2.1159870673424575 -12.641009079206352 -3.6811877194809117 3 0 -2
560 1 0.0004176588151089088 -9.795048193170768 -12.537217131022537 -3.3137763998168914 3 -1 -1
565 1 -8.197410023450674e-06 -7.233613825364243 -10.74733180232646 -4.035642472803056 3 -1 -1
575 1 0.0003648405516240849 -2.3072856075856585 -10.477865111124093 -5.069624289093719 3 0 -2
572 1 0.0004952407684786601 -3.5590104163773866 -10.63294224412619 -3.112099748651792 3 -1 -2
573 1 7.882238921064558e-05 -3.278118868616989 -12.068202180282357 -3.077168661098824 3 0 -2
564 1 0.0002985311359523686 -8.20148724356375 -10.483003622467074 -2.924369977101696 3 -1 -1
558 1 0.001725142203638425 -10.491946888190226 -13.46947439929815 -5.515565827532228 3 -1 -1
300 1 -0.0008555003815967251 -2.375897682647933 -10.30737278297321 -6.539297077377544 3 0 -1
281 1 -0.001330105449579089 -10.561112366826752 -13.337283573571076 -6.986095859413673 4 -1 -2
569 1 0.001095904405064962 -5.729086324450032 -10.171030191947159 -5.863290153711288 3 0 -2
562 1 9.266528913941599e-05 -9.082107178254457 -11.574967276056185 -2.468085244950821 3 -1 -1
559 1 0.0003072761832972962 -10.63862602302194 -9.783884790296842 -5.711173843652642 4 -1 -2
574 1 -0.0003328978014718632 -3.1063787151457625 -9.800944885384798 -4.042769337671416 3 -1 -1
567 1 0.0004704331806408869 -6.555118653545465 -9.642209570698775 -4.736451160953219 3 -1 -2
571 1 -6.991684179720806e-05 -4.233997223941788 -12.709561510747541 -2.316562425039825 3 -1 -2
292 1 0.001391701363263057 -5.145542425730463 -9.44951995168897 -7.029145804556936 3 -1 -2
557 1 -0.0001365881369866512 -10.969017948755148 -13.124398050348933 -2.7394203763863914 3 -1 -1
854 1 0.001057977134058984 -4.486849616393315 -10.42762568473879 -1.9978839274624356 3 -1 -2
303 1 0.001021655434935095 -1.7930737892437332 -9.10972761011887 -7.054722238359207 3 0 -1
607 1 0.0001301007165725628 -8.326852454444047 -9.088724238271363 -2.365484727139341 3 -1 -1
283 1 -0.0001091876484503491 -9.627087244550712 -9.051500155732516 -6.206952278852828 4 -1 -2
556 1 0.001284628100223856 -11.145353751820728 -9.472831892084429 -4.273822651329491 3 -1 -1
850 1 -0.0003243401713976211 -4.904444144574981 -11.71620679316207 -1.5490139167080699 3 0 -2
838 1 0.0004388953966178895 -11.267219411597852 -13.146724613494788 -1.334431525538692 3 -1 -1
851 1 0.00124471375109832 -4.923242463545137 -9.224053131497236 -1.3767044090877611 3 -1 -2
611 1 0.0005015574836271866 -7.210655009580064 -8.369757797857183 -4.694428822717628 4 -1 -2
338 1 0.0004594106055654454 -8.684265750959266 -8.213161544585063 -6.800528573218955 3 -1 -1
894 1 -0.00118286471040438 -8.825871038783587 -8.48816033254278 -1.1008848713604173 3 -1 -1
622 1 -0.000316467782298718 -2.9234713146795226 -8.207687762801674 -3.9302600354826716 3 -1 -1
628 1 0.002175691733758841 -0.23551359615493617 -8.119266535534411 -5.384482078335889 3 -1 -1
608 1 6.483695503656586e-05 -8.086334948011615 -8.2003967111056 -3.496566093251513 3 -1 -1
842 1 0.0001945641222244679 -9.36259959329131 -11.703028312029089 -1.0405800244804002 3 0 -1
907 1 -0.001021264677656317 -1.9129090302953902 -7.825444942556746 -1.4371557610698815 3 -1 -2
625 1 -0.001326303864390296 -1.5169229635716395 -7.989233720420912 -6.082961948589498 3 -1 -1
343 1 0.00115869521967016 -5.29655455355906 -8.02000876662822 -7.294648725603309 3 -1 -1
617 1 0.0002804967374552166 -4.828725661969815 -7.959365656543129 -2.0297409230204657 3 -1 -2
624 1 -0.002033454805615585 -1.767199330223967 -7.841803959995381 -2.881318724309091 3 -1 -1
612 1 0.0007032459233006407 -7.460871517303866 -7.784525534471182 -5.999022249718866 4 -1 -1
859 1 -0.001180976873397563 -1.3273235624696085 -8.951064921131408 -0.6393994029399348 3 0 -2
623 1 -0.000230746732248141 -2.602829443608142 -7.464270987880799 -5.29332631459471 3 -1 -1
620 1 0.000201830391243267 -4.204192925268588 -7.568957532157961 -3.295119475857417 3 -1 -2
841 1 -6.812111738268775e-05 -10.549243338670317 -12.30225295739982 -0.38783950618289964 3 0 -1
603 1 -0.0006207626001505755 -11.521657913888458 -8.096063168410994 -3.726871338306765 3 0 -1
341 1 -0.0002966982848913134 -6.295123886900749 -7.160886547457699 -6.602429666049396 3 -1 -1
893 1 -0.001415399983511683 -9.117426521240768 -7.055524763088105 -0.9157953730532125 3 -1 -1
626 1 -0.0004703342971558097 -0.6483362395360857 -7.019560884773837 -3.311331430365657 3 -1 -1
849 1 0.0004644048131922512 -5.051472403864927 -11.945150767561728 -0.10628281841573362 4 -1 -1
901 1 0.001412579667233621 -5.318549008339174 -6.954297052488657 -1.130161280467263 3 -1 -2
602 1 0.001202381978690631 -11.402751534622908 -6.829055719184183 -4.391273573409855 3 -1 -1
334 1 0.002190755510682782 -10.625703890724537 -6.842083372133158 -6.801778887863549 3 0 -2
427 1 -0.0007823153556929842 -9.076552694813728 -0.04512422066380317 -8.637136133708642 4 -1 -2
858 1 -0.001466095645645728 -1.7025414600423439 -10.382629230254526 -0.31432323927919903 3 0 -2
629 1 0.005350369951186498 -0.024862240522580237 -6.87426576588528 -4.65317021155634 3 -1 -1
426 1 0.007219345999469707 -8.872145036232341 -0.054654378199401776 -10.127520156506193 3 0 -1
379 1 -0.0009687327412283356 -11.611964244459578 -4.376825189406137 -7.007169919131439 3 0 -1
889 1 -0.001856667081248698 -11.166335382071548 -5.4156037251384355 -0.40679213091003064 3 -1 -2
904 1 -0.001047735391328245 -2.4787139688135653 -5.306105029212134 -1.517093647697214 3 -1 -2
621 1 -0.002181490788366363 -3.539108578728241 -6.807681348469364 -6.155011641165778 3 -1 -1
606 1 -0.0002783551520227426 -8.60692602698533 -6.781765400830577 -3.5243616225540126 3 -1 -1
897 1 0.0002269191270603751 -7.608729348404485 -5.206940816435493 -0.16277294162311406 3 -1 -2
905 1 -0.001025221078298326 -2.4366746633102334 -6.564838648304685 -0.7205249289847 3 -1 -2
902 1 0.002286652362005549 -5.094568470942873 -5.570738690517246 -1.5558941577598997 3 -1 -2
654 1 0.0003905237993063505 -7.446683755919647 -0.37927527719003074 -4.695668693503498 3 -1 -2
648 1 0.0002626600874566787 -11.177925140433091 -3.7781599203690206 -2.6333586940140066 4 -1 -1
667 1 -0.002345673076484023 -0.40007529805568076 -3.789176512988803 -2.1438233140781993 3 -1 -1
951 1 -0.001638946580356258 -3.1830493891012175 -4.1217262197457885 -1.140561400249835 3 -1 -2
386 1 0.000105703321264989 -8.275365951593557 -4.471283268056135 -6.6742407584499945 3 -1 -1
663 1 0.0005229984639230668 -1.3755188211888285 -1.8400834986407393 -3.226580074541685 3 -1 -1
653 1 -0.0001292110701546188 -7.935355482931525 -1.9727234555318365 -6.571200831283575 4 -1 -2
664 1 0.0003540350475973314 -1.3050080159404462 -2.6540020553136294 -2.104784139760003 3 -1 -1
610 1 0.001393265218401839 -7.804153706517507 -5.8601777172172635 -2.714332097291795 3 -1 -2
662 1 -0.001165961661824342 -2.342623438890765 -1.1314190222771572 -5.8817941300747485 3 0 -2
651 1 -0.000965571826876439 -9.630770785467659 -0.5687592688454988 -5.77365826447237 4 -2 -1
955 1 0.001685459839807139 -2.1461312472143454 -0.21022380406168395 -0.8901263414702161 3 -1 -2
387 1 0.001477279524303137 -7.398340159460251 -3.289047534001268 -6.944783195171232 3 -1 -1
939 1 -4.619508541879938e-05 -10.567681669063631 -1.3295294965209123 -1.9509179229210467 4 -1 -1
949 1 0.000976217323927657 -4.542960726194517 -4.39452572032617 -0.7689965816152942 3 -1 -2
948 1 -0.0001223066883183146 -5.387012931919389 -2.0486960744469016 -0.32537750358143747 3 -1 -2
614 1 0.001544155596183549 -6.6569909699296 -5.267955103026507 -3.53993100476878 3 -1 -1
660 1 -0.001498142495454848 -3.225864106606501 -1.2466165611081568 -4.683050768700239 3 0 -2
647 1 2.014445027163567e-05 -11.64173892029372 -2.007546726195187 -4.163860035362527 4 -1 -1
627 1 0.003791235186383494 -0.10407388126926165 -6.032262797954188 -2.353724213417477 3 -1 -2
649 1 0.001471469343981981 -11.082299118434829 -2.2618884316256906 -2.8261023327920167 4 -1 -1
891 1 0.0006055398342681984 -10.22284168118847 -6.582065722292033 -0.09007913306193771 3 -1 -2
652 1 0.001385024773809359 -8.895870044624035 -0.2702842753315533 -4.517622857040564 3 -1 -2
385 1 -0.00189464439632776 -9.320520486080767 -1.566123080770753 -6.780401505466758 4 -2 -1
947 1 0.0006934181006691791 -5.58835966195886 -3.468876496209127 -0.30051225053691333 3 -1 -2
656 1 0.001239318657247974 -5.5110159405158194 -1.3200724046655985 -5.9892500005547 3 -1 -1
395 1 -0.002976643293628907 -0.14073207553129663 -2.22930308338068 -6.763495587251788 3 -1 -1
909 1 -0.002152486133692309 -1.0434643067811198 -5.050848187560884 -1.8775727735407983 3 -1 -2
655 1 0.0008560707790356489 -6.941994636097606 -1.1178940932289372 -5.811929590396014 3 -1 -2
954 1 -0.001068629792492348 -2.2542495755361696 -2.832307502790803 -0.8833615756421409 3 -1 -1
950 1 0.000702493353395596 -4.353294215142669 -1.4203288668010536 -1.2077508276166231 3 -1 -2
896 1 -0.001420262017870783 -8.167648973869557 -5.929686310135648 -1.3227911926858589 4 0 -2
605 1 0.0005737044207640499 -9.057476628560151 -6.251436690926068 -4.822308634420883 3 -1 -1
659 1 -0.0007264532770168454 -4.684091947190268 -1.2023195596029144 -4.790473156854171 3 -1 -1
661 1 -0.00127071515444778 -2.453136434959955 -0.8290910205409094 -3.504072468499219 3 -1 -2
657 1 -0.001170962458621787 -5.250996379235507 -0.43744254551853423 -3.6772508304035565 3 -1 -2
618 1 -0.002729185554644412 -4.483609395818061 -6.015035751300667 -5.367170989171495 3 -1 -1
613 1 -0.0008289793260196909 -6.785235180752418 -5.279918979023144 -4.978061198846827 3 -1 -1
619 1 -0.0002683598453298609 -4.439991085613495 -6.305738201015382 -3.9023689411357267 3 -1 -1
888 1 -0.0008192461575250824 -11.146240312060737 -4.59121100885643 -1.4906695504161291 4 -1 -1
615 1 -0.001240721853345977 -5.833449699889881 -5.944937192064153 -5.916971592345549 3 0 -2
658 1 -0.0002475722646567251 -5.114176851292028 -0.6135239402992259 -2.2265870873988494 3 -1 -2
604 1 0.002569287627403201 -10.370159108162982 -6.5617211959061015 -5.407212736745931 3 -1 -1
952 1 9.619274920121684e-05 -2.956606654622613 -1.4202612158773302 -0.8730002775259855 3 -1 -2
665 1 -0.002608734563254271 -1.0788922658066884 -1.8848833218960515 -5.689782115585901 3 -1 -2
609 1 0.0007093898362194699 -8.139397628453 -5.255361246209713 -5.467668905686898 3 -1 -1
940 1 -0.001343629033663203 -10.249910255901598 -1.4054533416707837 -0.41520607582989477 4 -2 -2
666 1 -0.003577504824787563 -0.6134601107922375 -2.390293802915423 -4.399731558593492 3 -1 -2
616 1 0.0004261470542315515 -5.347898896678161 -5.452710847467499 -3.008425960877606 3 -1 -1
861 1 0.0008312891422418943 -0.5931039720239717 -11.30597478931082 -0.10895927913590597 3 -1 -2
848 1 -0.0006254164188230528 -5.354107184561463 -13.322555218919819 0.2238920329394123 3 0 -2
860 1 -0.001936342520464044 -0.8932598999472496 -12.71938698571493 0.25162170204624346 3 -1 -2
857 1 -0.001935516748673892 -2.2691373372855015 -12.559150593918687 0.716545128128466 3 -1 -2
844 1 0.0004731770266892324 -7.901586951129198 -12.682448280071155 0.8315705363167734 3 -1 -1
1147 1 -5.941351584226942e-05 -6.513144361592063 -12.689190531221648 3.0547356786387034 3 -1 -1
847 1 0.001762189267212406 -7.350321227495545 -12.047841414404148 2.0199229305163513 3 -1 -1
856 1 -0.000439657945830025 -2.7001573427184553 -11.194146781127436 0.38158721678152396 3 -1 -2
855 1 -0.001318415191447198 -4.138771579071558 -11.00467560544838 0.6609075926145564 4 -1 -1
1155 1 -0.00256898025470478 -2.950981472667115 -10.617265761247657 4.0226956627372985 4 -1 -1
846 1 0.0003893749205528436 -7.648488785937728 -10.645617857982192 2.0411655232397443 3 -1 -2
1140 1 0.0007474997849805827 -10.352797341409206 -10.495387401564077 3.00974000977601 3 -1 -3
845 1 -0.0003731118379681347 -8.1807408282347 -10.321570815960605 0.7036934657917175 3 -1 -2
1145 1 0.001266522205469668 -6.727891893549598 -11.98681464247201 4.310899957714518 3 -1 -2
1144 1 0.0006597879786009071 -6.8642589219107535 -10.503751506943692 4.370530227301579 3 -1 -2
1157 1 -0.001212695933092676 -1.522464913595865 -10.75066963796653 4.270318151733914 3 -1 -1
1143 1 -0.0005215292565322049 -7.684513887476275 -9.907081414458856 3.309770218357002 3 -1 -2
840 1 0.0005836955956094458 -10.716103461809068 -12.494991123802738 1.059861246267694 3 -1 -1
853 1 0.001233717274713716 -4.7450321663608745 -9.739444900988182 1.1667123322243977 3 -1 -2
1156 1 0.005023761410213845 -1.7979355647346082 -13.129715971201417 5.003952343198375 3 -1 -2
1159 1 0.001654773281807818 -0.903487166970006 -11.93971515846406 4.967422518395786 3 0 -2
1154 1 -0.0005877140422874058 -3.0641387469316967 -9.53490879813831 3.0523577434237446 4 -1 -1
1137 1 -0.001648071503598057 -10.81686107120827 -13.281017855549749 4.924303585841141 3 0 -2
1138 1 -0.001682677513025296 -10.74162584374805 -10.781807557007632 4.414139921188877 3 -1 -3
1152 1 -0.0007445264844182405 -3.9518032952248534 -10.714017197681466 5.091814220983842 4 -1 -1
1158 1 0.004760112761775973 -1.135410923546516 -9.344292704359063 4.339084126612079 3 -1 -2
1153 1 0.001055222780496884 -3.1948558373946554 -13.10501583627373 5.081399963133322 3 -1 -2
1141 1 -0.00113070632289302 -9.855316626577263 -9.200921491114078 2.6368498219305465 3 -1 -2
1148 1 0.0004144640817840967 -6.244010928904094 -9.583883155145568 5.341333819018427 3 -1 -2
895 1 -0.001266480076135092 -8.958689431492003 -9.164657323564821 0.2459508731658122 3 -1 -2
1200 1 -7.787254558657558e-06 -4.198950272613428 -8.954663812078765 2.273222196378928 3 -1 -2
1139 1 -0.001988265208695328 -10.51348830634209 -10.058030091485493 5.650993190550743 3 -1 -2
1151 1 0.0008112154814792372 -4.131833312684018 -12.029669958385538 5.537955153044518 3 -1 -1
1189 1 -0.0001688690044402644 -8.632308211023016 -8.77244341886814 3.3335065864688644 3 -1 -2
839 1 -2.517919501520208e-05 -11.029992896884382 -11.22159690925361 1.7935432948652128 3 -1 -1
1146 1 -0.001296799669276556 -6.534497702396859 -12.497205528840885 5.688874822117068 3 -1 -2
1150 1 2.540983588813356e-05 -4.866681788194469 -9.69728132922101 5.700803423379909 3 -1 -2
1185 1 -0.0009137408266128196 -9.780734268356525 -8.714504139266943 5.774302723248049 3 -1 -2
1207 1 0.0009013345557537904 -0.4641920055489468 -8.704140757350151 5.470761662524044 3 -1 -2
1204 1 0.0008663338416919422 -2.080082021322786 -8.579847237518596 3.5216333197555407 3 -1 -2
1191 1 0.000544556391757052 -8.43836537677498 -8.694870248260065 5.9228194300794215 3 -1 -2
892 1 -0.0003129658462632766 -9.77990583007004 -8.577559146092073 1.2424901653482028 3 -1 -2
1142 1 0.0004064033781810486 -9.67899722420748 -13.233506826361056 5.801151114585775 3 -1 -3
1193 1 0.0003253347003284272 -7.133302378553124 -8.546405875302312 6.030968512417456 3 -1 -2
1437 1 0.002294825882967779 -5.274692436880545 -12.344468845131676 6.410697677022561 3 -1 -2
1433 1 3.125648413195362e-05 -7.493766858798441 -13.313916403557743 6.400446308935255 3 -1 -3
1199 1 0.001075478893011302 -4.690142120682605 -7.6531518683845 2.755863588153108 4 1 -2
1136 1 -0.001660766808664352 -11.532286277717612 -12.06962993587271 4.563026714566639 3 -1 -2
1184 1 -0.001949131321481647 -10.269309525793613 -7.387465822319021 5.192954293053884 3 -1 -2
1190 1 -0.001284408598801384 -8.35237168711421 -7.400078931783206 3.723900772810044 3 -1 -2
1197 1 -6.751869216550799e-05 -6.1212865512327825 -7.359119063258341 2.5811447007232537 3 -1 -1
1427 1 -0.000333853369443457 -11.123503611875385 -10.556083174962232 6.894117700676048 3 -1 -3
890 1 -0.003465170795439149 -10.505795307893575 -7.308502356020653 1.1069478907111368 3 -1 -2
1203 1 0.001430340484948965 -2.4009808179126537 -7.126546252386504 3.5524207017580522 3 -1 -2
1183 1 0.01640060897695355 -11.663204461197862 -7.3319605655018405 4.748415025915179 3 -1 -2
1195 1 -0.0008609276081780817 -6.5295855065387665 -7.1090181165670785 6.129487857417736 3 -1 -2
1494 1 -0.002813565511420989 -0.8850751969076409 -8.750449776566601 6.909221398363464 3 0 -2
899 1 -0.0005023946831354091 -6.567417046696281 -7.034521373667499 1.2149482372897662 3 -1 -1
1440 1 -0.0003456722504519352 -4.47115688034979 -9.130514326097344 7.004199786647732 3 -1 -2
1194 1 -0.0008888396399228497 -6.955760770998561 -6.923802153688746 3.6775751479176932 3 -1 -2
1430 1 2.752654350177478e-05 -9.47045124065739 -12.495961075528276 7.0393937229788754 3 -1 -2
887 1 0.007407688880869756 -11.586343653686578 -6.83251739962527 2.0764657147556704 3 -1 -2
900 1 0.001508504751516673 -5.722888091606405 -7.585562757778104 0.136174357755797 3 -1 -2
843 1 0.001119437389405373 -8.328048502919867 -11.60799058178295 0.010316994715344308 3 0 -1
852 1 0.0006718956749023411 -4.645987363451728 -13.587231871653074 1.4922725574089313 4 -1 -1
1794 1 -0.001313852017158019 -10.515161163283189 -4.295197324378842 13.65760866871572 3 -1 -1
1759 1 -0.001310634673501065 -8.332332422583077 -6.469187375063604 13.541083612976156 3 -1 -2
945 1 -0.0006619115103862032 -6.957985214803886 -3.9155276086709243 0.10608444187244359 3 -1 -2
953 1 0.02268609880575196 -2.3060702028917692 -0.12240747246666217 1.697694860688312 3 0 -2
1811 1 0.0002367446722145103 -2.5621950286436714 -1.7860915068425616 14.04899295302738 3 -1 -2
1235 1 0.001730409749712607 -10.346876933679434 -3.671387342533439 6.38738357518163 3 -1 -2
1202 1 1.23144811873567e-05 -3.7325369817058114 -6.627855260648002 3.2029935425726137 4 1 -2
942 1 -0.002059546182070132 -8.024144822195307 -2.381102872290409 1.847786098560551 3 -1 -2
1535 1 -0.000302469147539966 -5.883624725775615 -1.5465989171263264 6.823355015220017 3 -1 -2
1201 1 0.0003403782778336507 -4.202004148547154 -5.317991469028138 3.7002039251725023 3 1 -2
943 1 -0.002275269450485517 -7.740047287578139 -1.3991650116143592 0.7237945085999247 4 -2 -2
1254 1 0.0006067290254623478 -0.22826469857747078 -2.7311865611270445 5.258023092549017 3 -1 -2
938 1 -0.0007117824102966554 -10.963892119205493 -0.2970787231679388 1.858189393248587 4 -1 -2