LAMMPS data file via write_data, version 29 Aug 2024, timestep = 1000, units = real

1921 atoms
3 atom types

-13.948218545237546 13.948218545237546 xlo xhi
-12.984989915220126 12.984989915220126 ylo yhi
-12.530593092137783 12.530593092137783 zlo zhi

Masses

1 12
2 1.008
3 15.999

Atoms # charge

2 1 -0.002467112334534833 -13.073113992832495 -11.23385498305323 -11.847913014342181 -1 1 -4
3 1 0.003169109188994195 -12.620224564574324 -8.86023225222566 -10.113112626466535 -1 1 -4
4 1 0.01542739356304706 -12.217819352876557 -11.380284099112473 -10.57437803696272 -1 1 -4
5 1 0.0229657988549857 -11.831273470801628 -10.02013839693333 -10.045601425265614 -1 1 -4
63 1 -0.001679514795706435 -11.674346400380836 -7.80395014535231 -10.084550804073332 0 1 -4
66 1 0.000948944236365809 -10.321024737565317 -8.156535354058299 -9.943130605193437 -1 1 -4
7 1 -0.0007230314994950207 -10.473289551967936 -9.604817580455373 -9.931329918522797 -1 1 -4
9 1 0.006162325860279767 -9.364511282745543 -11.698284873426397 -8.891481553409415 -2 1 -5
68 1 0.0001275523806192821 -9.216055468787903 -7.322316795219745 -10.253187758209618 -1 1 -4
10 1 0.0009226114153355856 -9.352906115777937 -10.337472938398044 -9.474009556032826 -1 1 -3
6 1 0.01500075000343354 -11.541610400174491 -12.537766535402135 -10.146141090293103 -1 1 -4
337 1 -4.230111797065214e-05 -8.538458702045325 -11.892723457230977 -7.648175945036766 -2 1 -5
374 1 -0.04987732460362314 -12.76909311265517 -8.592737334533723 -7.270549056781989 -1 1 -4
11 1 -0.002242019362652756 -8.163025516067778 -9.426697037465832 -9.519205830763893 -1 1 -4
330 3 -0.4905990637887597 -12.74969197226338 -11.188065837825723 -7.142940685845803 -1 1 -5
70 1 -0.001099714267224036 -8.023995156142297 -8.022468701317408 -9.97428563288737 -2 0 -4
8 1 0.00564408102757253 -10.167417692786518 -12.74521543084473 -9.51136947048617 -1 1 -4
375 1 0.007437673739651507 -12.15246578226399 -7.308427485319194 -6.912749472297498 -1 1 -4
332 1 0.2567509815426325 -12.223405544909479 -9.843462440299527 -6.8869632388429745 -1 1 -4
342 1 -0.004152717796989842 -7.698285353579967 -10.691274994359123 -7.446853694252674 -2 1 -5
379 1 0.002115761306018461 -9.81148632878098 -6.7529875583856676 -6.541105436422954 -1 0 -5
13 1 -0.004927729524620526 -7.178843427566662 -9.898903212594757 -8.594594509124178 -1 1 -4
336 1 0.002574402187670653 -8.638883812452395 -12.825325226205482 -6.534746550255899 -1 2 -4
62 1 1.604275005527914e-05 -11.817051219568105 -6.444968414523857 -10.517415503580764 -1 1 -4
170 1 0.0007992204338720735 -13.88316897891166 -2.742667399258746 -8.688517161562569 -2 0 -5
381 1 -0.0005895397861895163 -8.60229499069903 -7.374989819892007 -6.150443822115418 -1 1 -4
756 1 0.0004508104768534554 -5.710899709491734 -1.1560184990108375 -1.7579719634346542 -1 1 -4
348 1 0.01344591488379693 -1.7390738069952434 -12.559130213065492 -7.665639172329871 -2 1 -5
82 1 -0.004949344581963354 -2.065983051397394 -7.2125830774919635 -10.634530796811182 -2 1 -4
72 1 -0.0009561059697274325 -6.705318979470255 -7.356004096975983 -10.110949849671162 -2 0 -4
74 1 -0.001134613888700089 -5.621478935677395 -8.14010852789744 -9.570506386754333 -1 1 -3
16 1 -0.002289926193812283 -5.836064929408478 -9.4856324532229 -9.017547655698195 -1 1 -4
78 1 -0.000371551025873126 -4.188494396881126 -7.745111340184931 -9.402977825070943 -1 1 -4
21 1 0.04625438270512382 -3.916285451485651 -11.327396676430956 -11.91883992590641 -2 0 -4
22 1 0.003590106265576634 -3.738668499755576 -8.862485339764397 -11.804105881802293 -2 1 -4
20 1 0.004754216264337027 -3.8749526199472744 -11.332500331176252 -8.705553491511345 -2 1 -5
18 1 -0.003327321776883062 -4.508678483631533 -9.971440665359127 -8.645445609372432 -1 1 -3
23 1 -0.0008125088964466565 -3.6276176556731397 -8.861878586974147 -8.536351311254204 -1 1 -4
80 1 -0.002403240757494709 -3.4618402454523967 -7.576797959694764 -10.985539005225862 -2 1 -4
24 1 -0.04916182508039248 -3.1805276778025515 -10.146987984882518 -11.401612401530652 -2 0 -4
17 1 0.003119344263289407 -4.803355435064997 -12.006720966319822 -10.975235619247488 -1 2 -4
345 1 0.02060185646526839 -2.659739601773744 -11.4763122112113 -7.960009012084489 -2 1 -5
346 1 0.0002303074809744954 -2.3306769217561687 -8.956000431458067 -7.836403378186742 -2 1 -5
19 1 0.03140659643475323 -4.5266813152632555 -12.331044687310055 -9.542713926464957 -1 2 -4
15 1 -0.00500365174976334 -6.119608606016365 -12.29436810136458 -11.565984333793152 -1 1 -4
25 1 0.2344331217567991 -1.9071949453926713 -10.463750640577643 -10.84777128249074 -2 1 -4
347 1 -0.003116404732342537 -1.9117846747781915 -10.337656693318243 -7.423769872235962 -2 1 -5
391 1 0.0002042334135746726 -3.2119417756147737 -6.7080577994973005 -7.3316942789595805 -1 1 -4
26 3 -0.5129715307714309 -1.5511265877538403 -11.917065864181605 -10.693293473924143 -1 0 -5
392 1 -0.0003060866662122075 -2.135651687439239 -7.702390141173052 -7.193683602157371 -1 1 -4
27 1 -0.05015179681766661 -0.980415449603731 -9.512736787702819 -10.489845320014563 -2 1 -4
84 1 0.007289920400962869 -0.9029321909437691 -8.037105390598915 -10.574490344234427 -2 1 -4
351 1 -0.004530629959345393 -0.5677803158882622 -12.041358618557762 -6.94703587160747 -2 2 -4
350 1 -0.000466143637816184 -0.6323389808864803 -10.583488759404746 -6.765618493487939 -2 2 -4
28 1 0.2364796783924644 -0.19584107411546192 -11.689883734682503 -10.126937480785204 -2 1 -4
390 1 0.0003772993860233741 -4.1279005592625 -6.343170887809774 -6.25997672213997 -1 1 -4
764 1 0.0009363298304249212 -0.9552280598870571 -3.531663409764164 -3.2891372438998854 -1 1 -4
383 1 0.0005601931498317378 -7.674293524342519 -6.349913719402664 -6.140236384064386 -1 1 -4
372 1 -0.002055432666361278 -13.129486580564633 -6.246335788475892 -6.859056004473002 -1 1 -4
67 1 -0.0003503671719400879 -9.427162583467119 -5.935670913886892 -10.696006444421775 -1 1 -4
60 1 -0.0008975787235636322 -12.985608421484855 -5.819513537146414 -10.731248682068536 0 1 -5
65 1 -0.001071642248490944 -10.75864526160975 -5.592556358270255 -10.788588472497993 -1 1 -4
61 1 -0.00102981098915261 -12.764594320826928 -4.484262996231445 -11.100682466035149 0 1 -5
117 1 0.001115393488558918 -11.346660720437354 -2.5997127218561467 -9.049612192031923 -1 1 -4
64 1 -0.0005470005955198823 -11.340893429573159 -4.329453806936595 -11.113603474436786 -1 1 -4
118 1 0.001858825316111964 -11.463261097683274 -1.5293342467511302 -10.129197811521088 -1 0 -5
116 1 -0.0002857112195723474 -11.539964619519075 -0.13830978681195383 -9.706314156618554 -1 0 -5
119 1 0.0001437139155113058 -10.8435774350585 -1.8206867418567754 -11.451763575625478 -2 0 -5
120 1 0.0009533923519937128 -10.491817319630034 -3.2327979998808267 -11.51088312734344 -1 1 -4
122 1 0.0001054719012842167 -10.184186358185043 -3.3518644717828128 -8.607705982066834 -1 1 -4
115 1 -0.0005303404979352458 -12.46736391398363 -3.116027053215211 -8.371702344882712 -1 1 -4
123 1 0.000662631184477281 -9.184751626733973 -3.7035269737602388 -11.988599603507916 -1 1 -4
124 1 0.0003016631808170148 -9.193133302460321 -0.38720781818769723 -9.017693539991143 0 1 -3
378 1 0.0001668716743006456 -10.512069873743005 -4.51543857785774 -7.756760101578994 -1 1 -4
433 1 0.000374145248046992 -11.957128765297462 -4.2285458988892515 -7.577102422400422 -1 1 -4
125 1 0.0004964516545251478 -8.88010550468952 -3.0125662555315262 -8.927021564086356 -1 1 -4
69 1 0.0002577785568447025 -8.601799224005429 -4.888079222844146 -11.32990204455165 -1 1 -4
126 1 0.0002632247599311643 -8.656036562125724 -1.7031832162322331 -9.323330728400919 -2 1 -4
380 1 -0.0006861674191138735 -9.574261459741155 -5.467018672756407 -7.17331761800759 -1 0 -5
382 1 0.001088253495693886 -8.129236543924542 -5.331066571554332 -7.03530053641403 -1 0 -5
127 1 0.0005954030351720749 -7.571766374260664 -3.6009730567515135 -8.644898628504873 -2 0 -4
128 1 -0.0001640827864656143 -7.316498502371057 -1.5929034732600904 -9.66440691376861 -2 1 -4
384 1 0.001188414365137603 -7.184941156005402 -4.724967754597573 -7.877799774033896 -1 0 -5
71 1 0.0005651373416210581 -7.175229608590394 -4.941397644127536 -11.264379054756002 -2 0 -4
373 1 -0.003323187138214504 -12.772987272412355 -4.888567877057866 -6.516271600550581 -1 1 -4
121 1 -0.0003953825799682224 -10.262970831841578 -0.9187362360368923 -12.485417781535956 -2 0 -5
129 1 0.0002157988040235904 -7.074525926736923 -0.22904927719756607 -9.892047352952646 -1 1 -4
114 1 0.0008001867712804298 -13.920229586954903 -3.5730850586450895 -11.097101749797787 0 1 -5
438 1 5.685737037949834e-05 -7.177730962894248 -0.73802710153584 -6.0994508082978625 -1 0 -5
79 1 -9.965980483631239e-05 -3.6744129303813544 -6.367520443159479 -8.755396224039021 -1 1 -4
77 1 -5.546388972797398e-05 -4.2461758895026165 -6.318279915945163 -11.422198759985672 -1 1 -4
81 1 0.0008488912716264462 -2.3308895239452436 -6.185002809501482 -9.61266603101283 -1 1 -4
73 1 -0.0005180170483686866 -6.445881357447442 -6.024326131534611 -10.682787234949204 -2 0 -4
393 1 0.0008674444694918293 -1.9005539433374103 -4.508409367974371 -8.024277221661999 -2 1 -4
75 1 -0.001728884252829611 -5.026615964165215 -5.348918504082653 -10.64441138254511 -1 1 -4
139 1 1.894100262583506e-05 -3.8857458422883298 -3.1867960749404105 -11.964735893622256 -1 1 -4
130 1 4.553348340679067e-05 -6.475886407873336 -2.418189188371258 -12.457329062830313 -1 1 -4
132 1 0.0007248662266495717 -6.326515169027869 -3.683017048358261 -11.706761816907685 -1 1 -4
133 1 0.001199061201019072 -5.471589233707329 -1.2425691079116046 -12.492347344062368 -1 1 -4
135 1 -0.001192966586625111 -5.010917357614648 -4.0018154379549316 -11.409197181269644 -2 1 -4
131 1 0.0006131301306065238 -6.600107095182458 -2.7816518837741757 -9.292032832649022 -1 1 -4
136 1 0.0003494166942010976 -4.811818200209784 -0.14105699228286817 -11.257106382319334 -1 1 -4
76 1 0.0004373020162413161 -4.751933883794521 -5.223260543027119 -8.909330243430627 -2 1 -4
137 1 -0.0003707900038401983 -4.805265427226457 -1.3774782785208828 -8.978023342936083 -1 1 -4
134 1 0.00119182747605223 -5.156118216313059 -2.8347616494374357 -9.135412636549527 -2 0 -4
138 1 0.000852061712160488 -4.191384301774683 -3.8393763279988686 -8.85273726208746 -1 1 -4
140 1 0.0009736931276311568 -4.012563635063875 -0.7786281484545245 -10.042418030114327 -1 1 -4
445 1 0.0003922695917736169 -3.0674503634657295 -3.6033120207555296 -7.923886173982141 -2 1 -4
386 1 0.001304689210901936 -5.845748024565021 -5.254646585854494 -7.837417789139263 -1 1 -4
141 1 -0.001305647318572096 -2.4463714226481947 -3.4814097864659335 -11.99491269811197 -2 1 -4
142 1 -0.0003967182168199239 -2.591780774743725 -0.8696672732768143 -9.900612263158482 -1 0 -4
442 1 -0.0001499470397069921 -5.098742342442817 -0.937056098017715 -7.580363647625848 -2 1 -3
143 1 0.001209328384967855 -1.5949497916266857 -3.1263982167845565 -10.881215216227805 -2 1 -4
144 1 0.001606094089912028 -1.571465420838127 -1.9192624339904079 -10.162599119202934 -2 1 -4
440 1 -0.0001249791583635487 -6.361864407343847 -0.16827205085013297 -7.260610971174938 -1 1 -4
83 1 7.224414442062385e-05 -1.4973815120912946 -5.115252859395917 -9.306845760501414 -1 1 -4
449 1 -0.0002782180627804789 -1.419432152276535 -0.4221909087615163 -7.761942828352033 -2 1 -3
388 1 0.001252333292294988 -5.4834289217077945 -5.95604607580342 -6.675371993270609 -1 1 -4
444 1 -0.0002196549779596574 -3.403822974299736 -2.7713780167078017 -6.784727179614466 -1 1 -4
395 1 -0.0002403071585891578 -1.159426875132839 -4.825811614773448 -6.8101220807824046 -2 0 -4
85 1 0.0002983944487151922 -0.6163091000294116 -4.246159439392947 -10.384235206823199 -2 1 -4
145 1 -0.0002040514891011903 -0.4128886954883413 -2.1898030852326755 -9.29628636572479 -2 1 -3
443 1 -0.0005595555369021857 -4.5650187586583595 -1.8301854873234724 -6.577224390629109 -2 1 -4
451 1 -0.0006285564461118755 -0.34896119062758757 -1.343655654793313 -8.108578963488817 -2 1 -4
397 1 0.001248351280515887 -0.3741317451447319 -6.042332459247787 -6.553413873734294 -2 0 -4
376 1 -0.01110861111006236 -11.002315895961795 -7.3222846348531085 -6.113233217026408 -1 1 -4
647 1 0.007489944606174448 -10.189199766699666 -10.59506656318926 -2.4461184237505673 -2 2 -4
377 1 0.01559345848394109 -10.911945817750082 -8.37865765464131 -5.292054663350567 -1 1 -4
646 1 0.006198661693725876 -10.838480596008177 -9.568445881822527 -3.280158987196657 -1 1 -4
334 1 -0.05934722731406249 -11.564943091602007 -9.56047748738792 -5.604456003864712 -1 1 -4
335 1 0.009979287019125588 -11.526758946328533 -10.359055724885621 -4.481648896309334 -1 1 -4
688 1 -0.003885562583262673 -12.679790629281591 -7.89935624169288 -2.5347689871244974 -1 1 -4
642 1 0.01429003719758957 -11.9558993944254 -9.108685797370217 -2.4741856584238775 -1 1 -4
333 1 0.1539885336501755 -11.967661092657137 -11.678831794685028 -4.658013774561038 -2 1 -4
695 1 -0.0048338080610076 -10.058885985989924 -8.384381350097447 -4.104282039212492 -1 1 -4
696 1 -0.002910499288647565 -9.964774402140627 -7.048895380077654 -3.397594732353589 -1 2 -4
331 1 0.1978470443791931 -12.410441250223087 -12.064773697077063 -5.903274848845663 -1 1 -4
641 1 -0.05765699736818772 -12.246204744847883 -10.159133584597138 -1.5471713979181008 -1 1 -4
685 1 0.002962748522563976 -13.758878112276642 -8.023140810574912 -1.5931305496086772 -1 1 -4
645 1 0.07550643875426856 -11.08949149047865 -11.033576529826021 -1.513333939847362 -2 2 -4
648 1 0.001141582881032673 -8.856921359609167 -11.091852480308876 -2.6967789545973133 -1 1 -4
698 1 -0.002075668733949237 -8.564233977870266 -6.757997171721679 -2.917036380691279 -1 2 -4
650 1 -0.001908998342090865 -8.445013685054805 -8.885065030973598 -4.189444984287821 -1 1 -4
639 1 0.2550325659913239 -13.426636570570702 -10.353312538853059 -0.880903679163298 -1 1 -4
338 1 0.0003802093856966511 -8.383443311316839 -12.44186871752399 -5.145087040729304 -2 2 -4
651 1 -0.004442823697907567 -8.249571350609955 -10.34790528171453 -3.7812951684450855 -1 1 -4
339 1 -0.001891954070952984 -8.18988684041603 -8.700842588769424 -5.687663715482788 -1 1 -4
649 1 0.01217403631169072 -8.588118168038715 -12.589870653590642 -2.5355817762424095 -1 1 -4
340 1 -0.00144854890516723 -8.096723533589497 -11.033213122604002 -5.024003825571408 -1 1 -4
341 1 -0.002212004238142416 -7.894766515666515 -10.063202690120974 -6.136342164060634 -1 1 -4
644 1 -0.0505193600433022 -11.222387900061195 -12.091471420944199 -0.5323813794817323 -2 2 -4
700 1 -0.00200852041489033 -7.717773415987369 -7.788545371395561 -3.383112852064764 -1 2 -4
643 3 -0.4638321524096725 -11.927275921168997 -12.707663733921793 -3.5048818570774536 -2 1 -5
693 1 -0.0007722182258583996 -10.804471285239405 -6.721793197236617 -0.31788194173743634 -1 1 -5
638 3 -0.5085490626973318 -13.751681678802699 -11.667005282109145 -0.11267127947069255 -1 1 -4
689 1 -0.02028449254686244 -12.524738574039866 -6.530327940820341 -3.1961685118752072 0 1 -3
710 1 -0.002558888380723864 -2.2660357846271904 -6.28758194234647 -0.7691269277794763 -2 1 -4
652 1 -8.225441677632214e-05 -5.794238908112433 -12.862952563332216 -1.512105477523825 -2 1 -4
664 1 0.0006256224077095668 -0.3940372706940902 -10.734214340678523 -1.1675719461107672 -2 1 -4
663 1 0.001139598709421312 -0.5464954894441103 -10.156596195024429 -3.8463704615624863 -2 1 -4
662 1 0.0002931547887368366 -0.9842455281589526 -10.33254539845439 -2.4539210709121857 -2 1 -4
715 1 -0.0001093529624715053 -1.6425744453738425 -7.6620631949031 -0.9978695487192866 -1 1 -4
349 1 -0.0007023012268120438 -1.6968071880998465 -9.463356126546962 -4.578406824032147 -1 1 -4
713 1 0.001112667522046997 -2.0468793113756085 -8.180503723264787 -2.3416456901280718 -1 1 -4
712 1 0.0006652939027102234 -2.1184134506657593 -7.38470106867436 -3.633479727102724 -1 1 -4
661 1 -0.0004706485800275353 -2.271274488016246 -9.593832821113168 -2.483621271011062 -1 1 -4
660 1 -0.001523645049906264 -2.887125531576327 -9.867411708640779 -3.807155898537861 -1 1 -4
655 1 -0.002676662856043083 -5.001512641070647 -10.959031181937128 -3.0811914261087257 -1 1 -4
387 1 -0.0002024659137268778 -5.653441177118056 -6.850496413549906 -4.526620272445125 -2 1 -4
702 1 -0.001199631258693049 -6.253011047608851 -7.641800566013997 -3.389534343427581 -1 2 -4
389 1 0.0002004936317718913 -4.257375614958731 -6.717235664242553 -4.848582397729472 -2 0 -4
704 1 0.002487422851624975 -5.411454852535128 -7.702491943449303 -2.137256612507093 -1 2 -4
659 1 -0.003858913297498323 -3.7929077734546155 -11.034936727293513 -3.8815272086054886 -1 1 -4
656 1 0.002584988413591612 -5.025581398559119 -10.184303959663872 -1.8375455665436142 -1 1 -4
344 1 0.001845124614032828 -3.4666980766627624 -12.339291212496551 -4.495707469866595 -1 1 -4
653 1 -0.004218659172523443 -5.504479384220092 -12.349385967897602 -2.906988792387045 -2 2 -4
654 1 -0.004320283266591965 -5.679694807118448 -8.951610722456076 -1.3790102544231875 -1 1 -4
394 1 0.0003024029304202064 -1.6276575973246938 -8.036436424776081 -4.816959181439954 -1 1 -4
658 1 0.001834850716952673 -4.429533941252222 -11.004182686155524 -0.7471412407786087 -1 1 -4
657 1 -0.001171667184450404 -4.691307736241496 -12.453965505796056 -0.6527971239992638 -2 1 -4
396 1 0.0002759959148446352 -1.024562983430414 -7.535057419926507 -6.172656921338254 -2 1 -4
343 1 0.01516589963221222 -4.69534622709134 -12.776003464570117 -5.202369710643094 -1 1 -4
716 1 -0.003491262572884339 -1.267554793159249 -8.764075220821173 -0.26317670094984535 -1 2 -4
385 1 0.001180566726570145 -6.356327107455465 -6.343762145426261 -5.667242999717902 -2 1 -4
739 1 0.01399070358745744 -13.872084636669378 -1.929948808457075 -2.345195988123306 -1 0 -5
687 2 0.02147522432822742 -12.967830517005607 -6.473327036759397 -4.221232656192916 0 1 -4
428 1 0.001239627547682629 -13.856533223238845 -0.47449424083268354 -6.106957494528227 -2 0 -5
692 1 -0.00284305868997967 -11.030004995505152 -6.058277474402318 -3.36865829540527 0 1 -3
435 1 0.0006019190856958907 -10.780562974186354 -3.5478893162565868 -4.141078997971272 -1 1 -4
434 1 -0.0009768961892940402 -10.816562340461953 -2.2893791162265273 -4.692608333118448 -1 1 -4
744 1 0.002597232328513409 -11.460603918911186 -2.516065037911744 -1.426102717329755 -1 1 -4
694 1 -0.002682899398318547 -10.433600823976168 -4.7219477970066315 -3.470951292818535 0 1 -3
742 1 0.004262323351717856 -12.423551317249355 -3.5638013313498664 -1.6828117902509963 0 1 -4
431 1 -0.001441277592065828 -12.553834862373566 -0.430023531972596 -5.512858125120889 -2 0 -5
686 1 -0.002211032607307664 -13.45742472860572 -5.727618620101548 -2.097374871054509 -1 1 -4
430 1 -0.0001567562061786723 -13.214212875024947 -2.6516754656201034 -5.6834923163964275 0 1 -4
429 1 -0.002377036938924989 -13.62970035723286 -4.069207059930081 -5.673201272827503 0 1 -4
436 1 -0.0006022406640329506 -9.421155850867617 -1.5865946738545897 -4.746150055857794 -1 1 -4
432 1 -0.001531857520392896 -12.052403258836005 -1.8321118475048799 -5.341949445376651 -1 1 -4
740 1 0.002300746490175344 -13.554295196160522 -3.254472495168713 -2.4020346803499226 -1 1 -5
745 1 -0.001493483257958301 -10.67142559681897 -0.18360303493664176 -1.3678801856537817 -1 1 -4
743 1 0.001963412951148935 -11.601082320304945 -1.1635795485630247 -1.821271947488981 -1 1 -4
741 1 -0.005577159299913887 -12.920824410085707 -0.8507712754392074 -2.3301952780498496 -1 0 -5
690 1 -0.001328757327035576 -12.417972207896463 -4.938230579199649 -1.360455778282125 -1 1 -4
697 1 0.00165765204718628 -9.051008198400453 -4.384354235913138 -2.844785694972675 -1 1 -4
437 1 0.001776004569334279 -8.623901067722596 -1.0158911294144577 -5.8461394025236535 -1 0 -5
750 1 0.0007024332498681389 -8.498838251795789 -1.9239730629032294 -3.674985012714922 -1 1 -4
751 1 0.001511056562995248 -8.372243618089033 -3.125498908545925 -2.7816990634485794 -1 1 -4
699 1 0.0001757777020419231 -8.132019778918579 -5.407394414199677 -2.454382436834326 -2 1 -4
746 1 -0.0006125736546034564 -10.34891025625367 -2.9752991488929403 -0.6344632931695173 -1 1 -4
691 1 -0.003002202593562962 -11.230775589732248 -5.327432683928815 -0.6730602945451292 -1 1 -4
748 1 -4.445764512914403e-05 -9.629664078205238 -0.6331691932730426 -0.5970449470184196 -1 1 -4
747 1 -0.0002435228628711872 -10.201521183301015 -4.4136211415865105 -0.4650369458296506 -1 1 -4
752 1 0.0009360395636005513 -7.217185346865228 -1.1344302555970796 -3.702778613741696 -1 1 -4
749 1 -0.0008002420575613581 -9.468037836893078 -1.9361461739341603 -0.2890180926095489 -1 1 -4
753 1 -0.000867723744195973 -7.07193119837748 -3.4278171161113935 -2.2260383234456356 -1 1 -4
448 1 0.0001063631251789349 -1.422022072584351 -3.9018734825976953 -5.717390412315793 -2 0 -4
705 1 0.0002389015855332501 -4.849532740102999 -6.478895882091652 -1.5431462878135722 -1 1 -4
447 1 -0.0004205715138771438 -2.465634791404927 -2.907031303568848 -5.70046263491999 -2 0 -4
757 1 0.0003465282930515123 -4.713750452419436 -2.993302178531289 -2.9848620333337585 -1 1 -4
709 1 0.0007346160707671009 -3.2019666046129185 -6.417387169282306 -3.8428150403032344 -1 1 -4
714 1 -0.000387750521212097 -1.587823073155267 -5.120198182852721 -1.448777442565019 -1 1 -4
446 1 -8.675353638794986e-05 -2.745137312135121 -2.23418797574303 -4.429076790523112 -1 1 -4
441 1 3.42221303599767e-05 -5.037809227530877 -1.709336687530394 -5.178921579171354 -2 0 -4
754 1 0.0006522041609245931 -6.830757019768601 -0.4782714703403812 -2.4279434901467543 -1 1 -4
711 1 0.0007075766724049942 -1.9863107534828082 -4.597190442679077 -2.683343562004893 -1 1 -4
755 1 -0.0007763083713297272 -5.903487762699262 -2.5215828930988238 -2.1994218081444554 -1 1 -4
450 1 0.0007840200691770598 -0.9297118572917178 -0.0698603150397954 -5.29479938091288 -1 1 -4
758 1 0.0002907587925985826 -4.371641989032227 -0.5267313356210028 -1.7471234395115633 -1 1 -4
707 1 0.0004750802143302785 -3.6985869542641865 -6.47322210758399 -0.5778105772075133 -1 1 -4
765 1 0.0001720654766034016 -0.25715483990615695 -4.38407757384763 -1.1009545461598105 -1 1 -4
760 1 0.0007970092159419705 -3.1085233873303775 -0.8814714440602849 -1.0317354728427581 -1 1 -4
761 1 0.00097401469595065 -1.7013693028929318 -2.0993554047693017 -3.3879666489380327 -1 1 -4
701 1 0.0007527621986625974 -6.81715306264148 -4.849246977303752 -2.1000551095107234 -1 1 -5
759 1 0.0002316629662566273 -4.160583951247213 -2.2066638940281713 -4.097860315844581 -1 1 -4
439 1 -3.211150519176129e-05 -6.383868260406371 -1.1308186309866386 -4.978100402112033 -1 1 -4
762 1 -0.0004454263108634553 -1.7581850739239826 -0.5108795762109057 -1.416742944370176 -1 1 -4
706 1 -0.0007518524367023313 -4.395963395413121 -4.374225063725969 -2.81904075239812 -1 1 -5
708 1 0.0005297762833638454 -3.1776409768143203 -5.074380696567295 -3.401479341386935 -1 1 -5
703 1 -0.0003785317003588105 -5.351344812008778 -5.227927256547018 -2.1160416651435696 -1 1 -5
452 1 0.000336317707768926 -0.394804850999698 -3.937889129884363 -4.6652523621661635 -2 1 -4
763 1 -0.0002063075010246274 -1.322312951486463 -0.8574346124796346 -2.819107571499133 -2 0 -4
1009 1 -0.001308062939643787 -13.795181509155274 -7.198283074945623 2.90892384692566 -1 0 -5
1011 1 0.00438279626055112 -12.512313334541698 -8.289639767829001 1.1085962834236494 -1 1 -4
1013 1 -0.0001327333478634077 -11.859001539865172 -8.47576593392099 2.4549663215421056 -1 1 -4
1012 1 -0.002632944579244848 -12.291458640705578 -7.2878603566157825 3.1951224167995136 -1 0 -5
1014 1 -0.006291223391535129 -11.707208268246402 -7.508330504175046 0.4012872599714914 -1 1 -4
967 1 0.003206297825520642 -10.498794309852546 -9.01811867530541 2.491383957933955 -1 1 -4
968 1 0.01417004284199601 -10.256851523003622 -10.315292830676652 3.2426563690601906 -2 2 -4
1017 1 -0.003942683150757093 -9.88402949369824 -6.8447803948759915 3.45386940874379 -1 1 -4
969 1 0.01829811304520304 -9.650545447854949 -11.445678731864943 2.7796062397575643 -2 2 -4
1019 1 0.02746582333538524 -9.554632351207495 -7.918772454568384 2.4911242195447336 -1 1 -4
1293 1 -0.003971536279564921 -10.20181011948923 -10.288830473573338 4.839507480127887 -2 2 -4
1023 1 0.006999887634554912 -8.862538613920382 -7.412067502143069 1.248589136989418 -1 1 -4
1296 1 0.04511999530908389 -8.86977891660053 -10.415599569492203 5.071682996798474 -1 1 -4
970 1 0.02993409344256424 -8.968310579810158 -12.64387550785004 2.515674049683744 -1 1 -4
1290 1 0.001673533178282529 -11.27956973269854 -10.090243247434627 5.880425305065712 -2 1 -5
1297 1 0.01198157420963446 -7.6010061231777595 -10.56705052690326 5.301986904158069 -2 1 -5
1025 1 0.01697229894189583 -7.496685326815717 -6.956328727613869 1.2659440388322043 -1 1 -4
1357 1 -0.01033041898011794 -7.996987556351858 -6.4352921447978755 5.179365761485533 0 1 -6
983 1 -0.004916249123037661 -0.07567694728813557 -10.484296620307255 1.4181775037894422 -2 1 -4
1040 1 0.01120664296396139 -0.15087225725796571 -8.709511017803663 3.0850554139556685 -1 1 -4
1311 1 0.02764746686443617 -1.7883689893864343 -11.894771862413396 4.599573506618993 -2 1 -4
1027 1 0.02378707862567953 -6.3033884424900215 -7.741063517486262 0.8906298567714117 -1 1 -4
972 1 0.02170913319526649 -6.075966373200856 -8.903420096973296 0.012924077087891561 -1 1 -4
973 1 0.2608873865685492 -5.65835979708481 -10.032972654646967 2.332010078011793 -1 1 -5
971 3 -0.5068331162181036 -6.757679486655815 -9.473060114337198 3.1531934685113256 -2 1 -4
974 1 -0.05216741339759928 -5.442609822712788 -9.779620456464231 0.9744497706921056 -1 1 -5
1031 1 -0.001588116233458725 -5.045563536458873 -7.228544728756715 1.518253606767729 -1 1 -4
1032 1 0.01990529756816669 -4.852897777412856 -7.219971626355366 2.983636911347764 -1 1 -4
975 1 -0.06072535504052345 -4.556469700826902 -10.77208620326663 2.877200790854678 -2 1 -4
976 1 -0.002255094041287625 -4.190187621030976 -10.486878804993946 0.5753696443459209 -2 1 -4
1030 1 -0.002106862860141149 -5.809624085706847 -6.650023103934276 3.9417264522716895 -1 0 -5
977 1 0.0006276245925142671 -3.739988975039026 -11.234415077629944 1.71295365770394 -2 1 -4
1304 1 0.03294072684440719 -4.409253576767231 -11.064480705727249 4.251077346715926 -2 1 -4
1359 1 0.05647778405344068 -6.939678197662523 -7.2908258040064995 4.632756850922695 -1 1 -5
1300 1 0.2146747807143823 -6.512701445179184 -9.654897552056681 4.697504954009679 -2 1 -5
1308 1 0.001219696672401425 -3.4197539980351923 -11.972568212054455 4.8136232479100425 -2 1 -4
1036 1 -0.001761144462190663 -2.308296907912549 -6.935639241567478 3.748619181164175 -1 0 -5
1368 1 0.01326326644755279 -2.1789782257087644 -8.272491735176825 4.454582813549068 -1 1 -4
1365 1 0.01443428812819186 -3.3183626250941103 -8.573610530016449 5.079152360204448 -1 1 -4
1361 1 -0.04367926661617634 -6.625056680438985 -8.413279320794263 5.294966122540822 -1 0 -5
1303 1 -0.02687552201875826 -5.16344460204736 -10.302580406346184 5.286448573419298 -2 1 -4
1314 1 -0.0004978700680221028 -1.3999053359990938 -10.656608921345715 4.277456973254223 -2 1 -4
978 1 -0.002501186164827106 -3.2778445755194046 -12.593050230517328 1.4266391102447695 -2 2 -4
979 1 0.003716982915939479 -1.196110721686372 -9.339844299650828 3.9553696188181693 -1 1 -4
980 1 -0.005951132397671581 -0.943124056412973 -12.68973854267644 2.5903039860135273 -2 1 -4
1305 1 0.04529575294198185 -4.418701413448918 -8.935355510215087 5.695974118050794 -1 1 -5
982 1 -0.003093798602211935 -0.5078066050928811 -11.556164498008357 1.9859194331532635 -1 1 -4
1363 1 0.01275262089332374 -5.585559799621361 -8.099836690674504 6.095985606490915 0 1 -5
1307 1 0.03494877207548569 -4.054938924180053 -12.859083096762419 5.478120727646479 -2 1 -4
1039 1 0.02119647191427307 -0.11512562806493243 -7.277413577762732 2.7418815013284146 -1 1 -4
981 1 -0.003007442311984614 -0.7766092184958318 -9.987291803879044 0.07158104323953296 -1 1 -4
1018 1 -0.006121871298571866 -9.571996745467484 -6.448986891376941 0.410424466086436 -1 1 -5
1016 1 -0.002188399343959903 -11.272202425790109 -6.3008626239686 3.4409533912088826 -1 1 -4
1022 1 0.007359771171507387 -8.88165298735034 -5.954166878096272 4.070013148329265 -1 1 -5
1070 1 -0.06414188877808327 -13.363641213573027 -1.1223254127533604 2.586826817575279 -1 0 -5
1015 1 0.0003008209193953518 -11.45347719916669 -4.802058610727656 3.5769088119986936 -1 1 -5
1071 1 0.009658405176963487 -12.701222721795038 -1.8067315294454325 3.6242876501371786 -1 1 -5
1400 1 0.004972004636430159 -13.483688253619018 -2.96665738378106 3.980490670998753 -1 1 -5
1010 1 -0.0006811686797312082 -12.696995440767955 -4.302805554645383 4.0421180540924 -1 1 -5
1072 1 -0.00174362392774273 -11.288135565367764 -1.5985835509076285 3.961273707040979 -1 1 -4
1347 1 0.0003315194432717342 -13.795889153539612 -5.196470144437001 4.323445980738631 -1 1 -5
1073 1 0.0009185390125865805 -10.239991424074937 -3.9312804287733627 3.5704727449075317 -1 0 -5
1074 1 -0.0003477462128526655 -10.239852512550806 -2.477600213262285 3.421104600626512 -1 1 -5
1405 1 0.001012791586498887 -10.87430877361806 -0.6348358350339378 4.9931939082642405 -1 0 -4
1020 1 0.001497292374029464 -9.160025150619067 -5.120858998706063 0.2182608915781863 -1 1 -5
1021 1 -0.002984817362129789 -9.041608035972247 -4.525357709324359 4.136106217044743 -1 1 -5
1075 1 -0.001332995458660193 -8.96070886883778 -1.7198381998605239 3.3864735350732555 -2 0 -5
1076 1 -0.0005057340217952747 -8.420347876277326 -0.7388567518370728 2.452716336115479 -1 0 -4
1408 1 0.0009119319284264793 -8.514454557991655 -1.2832313922817757 4.754788698963127 -1 1 -5
1077 1 -0.001000696027250635 -8.420147395281312 -2.112035632281895 0.49015951866419094 -1 0 -4
1407 1 0.0006979477418322562 -9.508788032706986 -0.6049231076192747 5.605577328906607 -1 1 -5
1024 1 0.001802441518579254 -7.9865479160772015 -4.626625145787093 0.8646179617805352 -1 1 -5
1346 1 -0.001836528230770806 -13.838511850376138 -5.932075775562111 5.640559211627194 -1 1 -5
1078 1 -0.0002328973538142307 -8.033992256203593 -0.778099013733943 0.9348064259004634 -1 1 -4
1409 1 0.000441696477247875 -7.905825549873722 -2.4983761408181238 5.2686378063566845 -1 1 -5