LAMMPS data file via write_data, version 29 Aug 2024, timestep = 4000000, units = real

4461 atoms
8 atom types
5444 bonds
19 bond types
14785 angles
68 angle types
12187 dihedrals
184 dihedral types
2138 impropers
68 improper types

-12.48829194295788 12.48829194295788 xlo xhi
-13.63283159829457 13.63283159829457 ylo yhi
-13.314956267954422 13.314956267954422 zlo zhi

Atom Type Labels

1 c
2 c5
3 c=2
4 cp
5 ct
6 op
7 cg1
8 cge

Bond Type Labels

1 c-c
2 c-c5
3 c-c=2
4 c-cp
5 c-ct
6 c-op
7 c5-c5
8 c=2-c5
9 c5-cp
10 c5-ct
11 c5-op
12 c=2-c=2
13 c=2-cp
14 c=2-ct
15 cp-cp
16 cp-ct
17 cp-op
18 ct-ct
19 cg1-cge

Angle Type Labels

1 c-c-c
2 c-c-c5
3 c-c-cp
4 c-c-ct
5 c-c-op
6 c-c5-c5
7 c-c5-c=2
8 c-c5-cp
9 c-c5-ct
10 c-c=2-c=2
11 c-c=2-cp
12 c-c=2-ct
13 c-cp-c
14 c-cp-c5
15 c-cp-c=2
16 c-cp-cp
17 c-cp-ct
18 c-ct-ct
19 c-op-c5
20 c5-c-c5
21 c5-c-c=2
22 c5-c-cp
23 c5-c-op
24 c5-c5-c5
25 c5-c5-c=2
26 c5-c5-cp
27 c5-c5-ct
28 c5-c5-op
29 c5-c=2-c5
30 c5-c=2-c=2
31 c5-c=2-cp
32 c5-c=2-ct
33 c5-cp-c5
34 c5-cp-c=2
35 c5-cp-cp
36 c5-cp-ct
37 c5-ct-c=2
38 c5-ct-cp
39 c5-ct-ct
40 c5-op-c5
41 c5-op-cp
42 c=2-c-cp
43 c=2-c5-cp
44 c=2-c=2-c=2
45 c=2-c=2-cp
46 c=2-c=2-ct
47 c=2-cp-cp
48 c=2-ct-c=2
49 c=2-ct-cp
50 c=2-ct-ct
51 cp-c-cp
52 cp-c-ct
53 cp-c-op
54 cp-c5-cp
55 cp-c5-ct
56 cp-c5-op
57 cp-c=2-cp
58 cp-c=2-ct
59 cp-cp-cp
60 cp-cp-ct
61 cp-cp-op
62 cp-ct-cp
63 cp-ct-ct
64 cp-op-cp
65 ct-c5-op
66 ct-ct-ct
67 cge-cg1-cg1
68 cge-cg1-cge

Dihedral Type Labels

1 c-c-c-c
2 c-c-c-c5
3 c5-c-c-c5
4 cp-c-c-cp
5 c-c-c-cp
6 c5-c-c-cp
7 c5-c-c-ct
8 cp-c-c-ct
9 cp-c-c-op
10 c-c-c5-c5
11 c5-c-c5-c5
12 c-c-c5-c=2
13 cp-c-c5-cp
14 c-c-c5-cp
15 c5-c-c5-cp
16 c=2-c-c5-cp
17 c=2-c-c5-ct
18 c5-c-c5-ct
19 cp-c=2-c-c5
20 ct-c=2-c-cp
21 c-c-cp-c
22 c-c-cp-c5
23 c5-c-cp-c5
24 c-c-cp-c=2
25 c5-c-cp-c=2
26 c5-c-cp-cp
27 c=2-c-cp-cp
28 cp-c-cp-cp
29 c-c-cp-cp
30 c5-c-cp-ct
31 cp-c-cp-ct
32 c-c-cp-ct
33 c-c-ct-ct
34 cp-c-ct-ct
35 c-c-op-c5
36 c5-c-op-c5
37 c=2-c-c5-c5
38 cp-c-c5-c=2
39 cp-c-c5-c5
40 op-c-c5-c5
41 c-c5-c5-c
42 c-c5-c5-c5
43 c5-c5-c5-c5
44 c=2-c5-c5-c=2
45 c-c5-c5-c=2
46 c5-c5-c5-c=2
47 cp-c5-c5-cp
48 c5-c5-c5-cp
49 c=2-c5-c5-cp
50 c-c5-c5-cp
51 c-c5-c5-ct
52 c5-c5-c5-ct
53 cp-c5-c5-ct
54 cp-c5-c5-op
55 c=2-c5-c5-op
56 c-c5-c5-op
57 c5-c5-c5-op
58 op-c5-c5-op
59 c5-c=2-c5-c5
60 c5-c=2-c5-c
61 c=2-c=2-c5-c
62 c=2-c=2-c5-c5
63 cp-c=2-c5-c
64 cp-c=2-c5-c5
65 cp-c=2-c5-cp
66 ct-c=2-c5-cp
67 ct-c=2-c5-c5
68 c-c5-cp-c
69 c-c5-cp-c5
70 c5-c5-cp-c5
71 c5-c5-cp-c=2
72 c-c5-cp-c=2
73 c-c5-cp-cp
74 c5-c5-cp-cp
75 cp-c5-cp-cp
76 c=2-c5-cp-cp
77 cp-c5-cp-ct
78 c5-c5-cp-ct
79 c5-c5-ct-cp
80 cp-c5-ct-cp
81 c-c5-ct-ct
82 c5-c5-ct-ct
83 cp-c5-ct-ct
84 c5-c5-op-c5
85 c5-c5-op-cp
86 cp-c5-op-cp
87 c=2-c=2-c-cp
88 c5-c=2-c5-cp
89 c=2-c=2-c5-cp
90 c5-c=2-c=2-c5
91 c=2-c=2-c=2-c=2
92 c-c=2-c=2-c=2
93 c5-c=2-c=2-c=2
94 cp-c=2-c=2-cp
95 c=2-c=2-c=2-cp
96 c-c=2-c=2-cp
97 c5-c=2-c=2-cp
98 c=2-c=2-c=2-ct
99 c5-c=2-c=2-ct
100 ct-c=2-c=2-ct
101 cp-c=2-c=2-ct
102 c5-c=2-cp-c5
103 c5-c=2-cp-cp
104 c=2-c=2-cp-cp
105 c-c=2-cp-cp
106 cp-c=2-cp-cp
107 c5-c=2-ct-c=2
108 c=2-c=2-ct-c=2
109 c=2-c=2-ct-cp
110 cp-c=2-ct-cp
111 c5-c=2-ct-cp
112 cp-c=2-ct-ct
113 c5-c=2-ct-ct
114 c=2-c=2-ct-ct
115 c-c=2-ct-ct
116 c5-c-cp-c
117 c=2-c-cp-c5
118 cp-c-cp-c=2
119 cp-c-cp-c
120 cp-c-cp-c5
121 ct-c-cp-cp
122 op-c-cp-cp
123 c-cp-c5-c5
124 c-cp-c5-c=2
125 c-cp-c5-cp
126 c=2-cp-c5-cp
127 c5-cp-c5-cp
128 cp-cp-c5-ct
129 c=2-cp-c5-op
130 cp-cp-c5-op
131 c-cp-c5-op
132 c5-c=2-cp-c
133 c=2-c=2-cp-c5
134 c=2-c=2-cp-c
135 cp-c=2-cp-c
136 cp-c=2-cp-c5
137 ct-c=2-cp-c5
138 ct-c=2-cp-c
139 ct-c=2-cp-cp
140 c-cp-cp-c
141 c-cp-cp-c5
142 c5-cp-cp-c5
143 c=2-cp-cp-c=2
144 c-cp-cp-c=2
145 c5-cp-cp-c=2
146 c5-cp-cp-cp
147 cp-cp-cp-cp
148 c=2-cp-cp-cp
149 c-cp-cp-cp
150 cp-cp-cp-ct
151 c-cp-cp-ct
152 c=2-cp-cp-ct
153 c5-cp-cp-ct
154 c5-cp-cp-op
155 cp-cp-cp-op
156 c-cp-cp-op
157 c=2-cp-cp-op
158 c5-cp-ct-c=2
159 c-cp-ct-c=2
160 c-cp-ct-cp
161 cp-cp-ct-cp
162 cp-cp-ct-ct
163 c-cp-ct-ct
164 cp-cp-op-cp
165 cp-c5-ct-c=2
166 op-c5-ct-cp
167 op-c5-ct-c=2
168 c=2-c=2-ct-c5
169 cp-c=2-ct-c=2
170 cp-cp-ct-c5
171 cp-cp-ct-c=2
172 c5-ct-ct-c=2
173 c=2-ct-ct-c=2
174 c5-ct-ct-cp
175 cp-ct-ct-cp
176 c=2-ct-ct-cp
177 c-ct-ct-cp
178 c=2-ct-ct-ct
179 cp-c-op-c5
180 c5-c5-op-c
181 cp-c5-op-c
182 cp-c5-op-c5
183 ct-c5-op-c5
184 cp-cp-op-c5

Improper Type Labels

1 c-c5-c5-c5-nb==3
2 c-c5-c5-c=2-nb==3
3 c-c5-c5-cp-nb==3
4 c-c5-c5-ct-nb==3
5 c-c5-c=2-cp-nb==3
6 c-c5-cp-cp-nb==3
7 c-c=2-c=2-ct-nb==3
8 c-c=2-cp-cp-nb==3
9 c-cp-c-c5-nb==3
10 c-cp-c-cp-nb==3
11 c-cp-c5-c5-nb==3
12 c-cp-c5-cp-nb==3
13 c-cp-c=2-cp-nb==3
14 c-cp-cp-cp-nb==3
15 c-cp-cp-ct-nb==3
16 c5-c5-c5-c5-nb==3
17 c5-c5-c5-c=2-nb==3
18 c5-c5-c5-cp-nb==3
19 c5-c5-c5-ct-nb==3
20 c5-c5-c5-op-nb==3
21 c5-c5-c=2-cp-nb==3
22 c5-c5-cp-cp-nb==3
23 c5-c5-cp-ct-nb==3
24 c5-c5-cp-op-nb==3
25 c5-c=2-c5-cp-nb==3
26 c5-c=2-c=2-c=2-nb==3
27 c5-c=2-c=2-cp-nb==3
28 c5-c=2-c=2-ct-nb==3
29 c5-c=2-cp-cp-nb==3
30 c5-c=2-cp-ct-nb==3
31 c5-cp-c5-c5-nb==3
32 c5-cp-c5-cp-nb==3
33 c5-cp-c=2-cp-nb==3
34 c5-cp-cp-cp-nb==3
35 c5-cp-cp-ct-nb==3
36 c=2-c5-cp-cp-nb==3
37 c=2-c=2-c=2-c=2-nb==3
38 c=2-c=2-c=2-cp-nb==3
39 c=2-c=2-c=2-ct-nb==3
40 c=2-c=2-cp-cp-nb==3
41 c=2-c=2-cp-ct-nb==3
42 c=2-cp-cp-cp-nb==3
43 cp-c5-cp-cp-nb==3
44 cp-c5-cp-ct-nb==3
45 cp-c5-cp-op-nb==3
46 cp-c5-ct-op-nb==3
47 cp-c=2-cp-cp-nb==3
48 cp-c=2-cp-ct-nb==3
49 cp-cp-cp-cp-nb==3
50 cp-cp-cp-ct-nb==3
51 cp-cp-cp-op-nb==3
52 c-c-c-c-nb!=3
53 c-c-c-c5-nb!=3
54 c-c-c-cp-nb!=3
55 c-c-c5-c5-nb!=3
56 c-c-c5-cp-nb!=3
57 c-c-c5-op-nb!=3
58 c-c-cp-cp-nb!=3
59 c-c-cp-ct-nb!=3
60 c-c-cp-op-nb!=3
61 c5-c-c5-c5-nb!=3
62 c5-c-c5-c=2-nb!=3
63 c5-c-c5-cp-nb!=3
64 c5-c-cp-cp-nb!=3
65 c5-c-cp-op-nb!=3
66 c=2-c-cp-cp-nb!=3
67 cp-c-cp-cp-nb!=3
68 cp-c-cp-ct-nb!=3

Masses

1 12.01115
2 12.01115
3 12.01115
4 12.01115
5 12.01115
6 15.9994
7 10.01115
8 1

Pair Coeffs # lj/class2/coul/long

1 0.054 4.01
2 0.062 3.932
3 0.064 4.01
4 0.062 3.932
5 0.064 4.01
6 0.109 3.535
7 0.062 3.932
8 1e-05 1e-05

Bond Coeffs # class2

1 1.53 299.67 -501.77 679.81
2 1.501 321.902 -521.821 572.163
3 1.506 312.352 -582.186 339.897
4 1.501 321.902 -521.821 572.163
5 1.42 311.149 0 0
6 1.38 346.548 0 0
7 1.42 480 0 0
8 1.5 322.8 0 0
9 1.42 480 0 0
10 1.4 321.672 0 0
11 1.3597 547.517 -834.067 544.309
12 1.34 543.99 -1238.2 1644.03
13 1.5 322.8 0 0
14 1.425 337.642 0 0
15 1.42 480 0 0
16 1.4 321.672 0 0
17 1.3597 547.517 -834.067 544.309
18 1.204 800 0 0
19 0.65 250 0 0

Angle Coeffs # class2

1 112.67 39.516 -7.443 -9.5583
2 108.4 43.9594 -8.3924 -9.3379
3 108.4 43.9594 -8.3924 -9.3379
4 109.5 46 0 0
5 110.5 46 0 0
6 120.05 44.7148 -22.7352 0
7 120 80 0 0
8 120.05 44.7148 -22.7352 0
9 120 80 0 0
10 126.26 43.825 -27.7266 1.0056
11 120 36.2 0 0
12 120 36.2 0 0
13 120 80 0 0
14 120.05 44.7148 -22.7352 0
15 120 80 0 0
16 120.05 44.7148 -22.7352 0
17 120 80 0 0
18 180 200 0 0
19 108 75 0 0
20 111 44.3234 -9.4454 0
21 109.5 46 0 0
22 111 44.3234 -9.4454 0
23 110.5 46 0 0
24 120 90 0 0
25 120 80 0 0
26 120 90 0 0
27 120 80 0 0
28 104.17 101.321 -17.3072 0
29 120 36.2 0 0
30 120 36.2 0 0
31 120 36.2 0 0
32 120 36.2 0 0
33 120 90 0 0
34 120 80 0 0
35 120 90 0 0
36 120 80 0 0
37 180 200 0 0
38 180 200 0 0
39 180 200 0 0
40 103.43 112.45 -25.7326 0
41 103.43 112.45 -25.7326 0
42 109.5 46 0 0
43 120 80 0 0
44 117.6 56.48 -16.2283 -12.6333
45 120 36.2 0 0
46 120 36.2 0 0
47 120 80 0 0
48 180 200 0 0
49 180 200 0 0
50 180 200 0 0
51 111 44.3234 -9.4454 0
52 109.5 46 0 0
53 110.5 46 0 0
54 120 90 0 0
55 120 80 0 0
56 104.17 101.321 -17.3072 0
57 120 36.2 0 0
58 120 36.2 0 0
59 120 90 0 0
60 120 80 0 0
61 104.17 101.321 -17.3072 0
62 180 200 0 0
63 180 200 0 0
64 103.43 112.45 -25.7326 0
65 120 60 0 0
66 180 200 0 0
67 90 50 0 0
68 180 50 0 0

BondBond Coeffs

1 0 1.53 1.53
2 0 1.53 1.501
3 0 1.53 1.501
4 0 1.53 1.42
5 0 1.53 1.38
6 12.0676 1.501 1.417
7 0 1.501 1.5
8 12.0676 1.501 1.417
9 0 1.501 1.4
10 17.7913 1.506 1.34
11 0 1.506 1.5
12 0 1.506 1.425
13 0 1.501 1.501
14 12.0676 1.501 1.417
15 0 1.501 1.5
16 12.0676 1.501 1.417
17 0 1.501 1.4
18 0 1.42 1.204
19 0 1.38 1.3597
20 0 1.501 1.501
21 0 1.501 1.506
22 0 1.501 1.501
23 0 1.501 1.38
24 0 0 0
25 0 1.417 1.5
26 0 0 0
27 0 1.417 1.4
28 80.029 1.417 1.3597
29 0 1.5 1.5
30 0 1.5 1.34
31 0 1.5 1.5
32 0 1.5 1.425
33 0 0 0
34 0 1.417 1.5
35 0 0 0
36 0 1.417 1.4
37 0 1.4 1.425
38 0 1.4 1.4
39 0 1.4 1.204
40 109.908 1.3597 1.3597
41 109.908 1.3597 1.3597
42 0 1.506 1.501
43 0 1.5 1.417
44 0 1.34 1.34
45 0 1.34 1.5
46 0 1.34 1.425
47 0 1.5 1.417
48 0 1.425 1.425
49 0 1.425 1.4
50 0 1.425 1.204
51 0 1.501 1.501
52 0 1.501 1.42
53 0 1.501 1.38
54 0 0 0
55 0 1.417 1.4
56 80.029 1.417 1.3597
57 0 1.5 1.5
58 0 1.5 1.425
59 0 0 0
60 0 1.417 1.4
61 80.029 1.417 1.3597
62 0 1.4 1.4
63 0 1.4 1.204
64 109.908 1.3597 1.3597
65 0 1.4 1.3597
66 0 1.204 1.204
67 0 0 0
68 0 0 0

BondAngle Coeffs

1 8.016 8.016 1.53 1.53
2 0 0 1.53 1.501
3 0 0 1.53 1.501
4 0 0 1.53 1.42
5 0 0 1.53 1.38
6 47.0579 31.0771 1.501 1.417
7 0 0 1.501 1.5
8 47.0579 31.0771 1.501 1.417
9 0 0 1.501 1.4
10 31.5885 24.2252 1.506 1.34
11 0 0 1.506 1.5
12 0 0 1.506 1.425
13 0 0 1.501 1.501
14 47.0579 31.0771 1.501 1.417
15 0 0 1.501 1.5
16 47.0579 31.0771 1.501 1.417
17 0 0 1.501 1.4
18 0 0 1.42 1.204
19 0 0 1.38 1.3597
20 0 0 1.501 1.501
21 0 0 1.501 1.506
22 0 0 1.501 1.501
23 0 0 1.501 1.38
24 0 0 0 0
25 0 0 1.417 1.5
26 0 0 0 0
27 0 0 1.417 1.4
28 97.677 187.828 1.417 1.3597
29 0 0 1.5 1.5
30 0 0 1.5 1.34
31 0 0 1.5 1.5
32 0 0 1.5 1.425
33 0 0 0 0
34 0 0 1.417 1.5
35 0 0 0 0
36 0 0 1.417 1.4
37 0 0 1.4 1.425
38 0 0 1.4 1.4
39 0 0 1.4 1.204
40 222.412 222.412 1.3597 1.3597
41 222.412 222.412 1.3597 1.3597
42 0 0 1.506 1.501
43 0 0 1.5 1.417
44 0 0 1.34 1.34
45 0 0 1.34 1.5
46 0 0 1.34 1.425
47 0 0 1.5 1.417
48 0 0 1.425 1.425
49 0 0 1.425 1.4
50 0 0 1.425 1.204
51 0 0 1.501 1.501
52 0 0 1.501 1.42
53 0 0 1.501 1.38
54 0 0 0 0
55 0 0 1.417 1.4
56 97.677 187.828 1.417 1.3597
57 0 0 1.5 1.5
58 0 0 1.5 1.425
59 0 0 0 0
60 0 0 1.417 1.4
61 97.677 187.828 1.417 1.3597
62 0 0 1.4 1.4
63 0 0 1.4 1.204
64 222.412 222.412 1.3597 1.3597
65 0 0 1.4 1.3597
66 0 0 1.204 1.204
67 0 0 0 0
68 0 0 0 0

Dihedral Coeffs # class2

1 0 0 0.0514 0 -0.143 0
2 0 0 0 0 0.158 0
3 0 0 0 0 0.158 0
4 0 0 0 0 0.158 0
5 0 0 0 0 0.158 0
6 0 0 0 0 0.158 0
7 0 0 0 0 0.158 0
8 0 0 0 0 0.158 0
9 0 0 0 0 0.158 0
10 -0.2802 0 -0.0678 0 -0.0122 0
11 -0.2802 0 -0.0678 0 -0.0122 0
12 0 0 0 0 0 0
13 -0.2802 0 -0.0678 0 -0.0122 0
14 -0.2802 0 -0.0678 0 -0.0122 0
15 -0.2802 0 -0.0678 0 -0.0122 0
16 0 0 0 0 0 0
17 0 0 0 0 0 0
18 0 0 0 0 0 0
19 0 0 0 0 0.211 0
20 0 0 0 0 0.211 0
21 0 0 0 0 0 0
22 -0.2802 0 -0.0678 0 -0.0122 0
23 -0.2802 0 -0.0678 0 -0.0122 0
24 0 0 0 0 0 0
25 0 0 0 0 0 0
26 -0.2802 0 -0.0678 0 -0.0122 0
27 0 0 0 0 0 0
28 -0.2802 0 -0.0678 0 -0.0122 0
29 -0.2802 0 -0.0678 0 -0.0122 0
30 0 0 0 0 0 0
31 0 0 0 0 0 0
32 0 0 0 0 0 0
33 0 0 0 0 0 0
34 0 0 0 0 0 0
35 0 0 0 0 0.13 0
36 0 0 0 0 0.13 0
37 0 0 0 0 0 0
38 0 0 0 0 0 0
39 -0.2802 0 -0.0678 0 -0.0122 0
40 0 0 0 0 0 0
41 0 0 3 0 0 0
42 0 0 4.4072 0 0 0
43 0 0 0 0 0 0
44 0 0 3 0 0 0
45 0 0 3 0 0 0
46 0 0 3 0 0 0
47 0 0 0 0 0 0
48 0 0 0 0 0 0
49 0 0 3 0 0 0
50 0 0 4.4072 0 0 0
51 0 0 3 0 0 0
52 0 0 3 0 0 0
53 0 0 3 0 0 0
54 0 0 10.6923 0 0 0
55 0 0 3 0 0 0
56 0 0 3 0 0 0
57 0 0 10.6923 0 0 0
58 0 0 3 0 0 0
59 0 0 0.5 0 0 0
60 0 0 0.5 0 0 0
61 0 0 0.5 0 0 0
62 0 0 0.5 0 0 0
63 0 0 0.5 0 0 0
64 0 0 0.5 0 0 0
65 0 0 0.5 0 0 0
66 0 0 0.5 0 0 0
67 0 0 0.5 0 0 0
68 0 0 3 0 0 0
69 0 0 4.4072 0 0 0
70 0 0 0 0 0 0
71 0 0 3 0 0 0
72 0 0 3 0 0 0
73 0 0 4.4072 0 0 0
74 0 0 0 0 0 0
75 0 0 0 0 0 0
76 0 0 3 0 0 0
77 0 0 3 0 0 0
78 0 0 3 0 0 0
79 0 0 0 0 0 0
80 0 0 0 0 0 0
81 0 0 0 0 0 0
82 0 0 0 0 0 0
83 0 0 0 0 0 0
84 0 0 27.5402 0 0 0
85 0 0 27.5402 0 0 0
86 0 0 27.5402 0 0 0
87 0 0 0 0 0.211 0
88 0 0 0.5 0 0 0
89 0 0 0.5 0 0 0
90 0 0 3 0 0 0
91 0 0 3 0 0 0
92 0 0 3 0 0 0
93 0 0 3 0 0 0
94 0 0 3 0 0 0
95 0 0 3 0 0 0
96 0 0 3 0 0 0
97 0 0 3 0 0 0
98 0 0 3 0 0 0
99 0 0 3 0 0 0
100 0 0 3 0 0 0
101 0 0 3 0 0 0
102 0 0 0.5 0 0 0
103 0 0 0.5 0 0 0
104 0 0 0.5 0 0 0
105 0 0 0.5 0 0 0
106 0 0 0.5 0 0 0
107 0 0 0 0 0 0
108 0 0 0 0 0 0
109 0 0 0 0 0 0
110 0 0 0 0 0 0
111 0 0 0 0 0 0
112 0 0 0 0 0 0
113 0 0 0 0 0 0
114 0 0 0 0 0 0
115 0 0 0 0 0 0
116 0 0 0 0 0 0
117 0 0 0 0 0 0
118 0 0 0 0 0 0
119 0 0 0 0 0 0
120 -0.2802 0 -0.0678 0 -0.0122 0
121 0 0 0 0 0 0
122 0 0 0 0 0 0
123 0 0 4.4072 0 0 0
124 0 0 3 0 0 0
125 0 0 4.4072 0 0 0
126 0 0 3 0 0 0
127 0 0 0 0 0 0
128 0 0 3 0 0 0
129 0 0 3 0 0 0
130 0 0 10.6923 0 0 0
131 0 0 3 0 0 0
132 0 0 0.5 0 0 0
133 0 0 0.5 0 0 0
134 0 0 0.5 0 0 0
135 0 0 0.5 0 0 0
136 0 0 0.5 0 0 0
137 0 0 0.5 0 0 0
138 0 0 0.5 0 0 0
139 0 0 0.5 0 0 0
140 0 0 3 0 0 0
141 0 0 4.4072 0 0 0
142 0 0 0 0 0 0
143 0 0 3 0 0 0
144 0 0 3 0 0 0
145 0 0 3 0 0 0
146 0 0 0 0 0 0
147 0 0 0 0 0 0
148 0 0 3 0 0 0
149 0 0 4.4072 0 0 0
150 0 0 3 0 0 0
151 0 0 3 0 0 0
152 0 0 3 0 0 0
153 0 0 3 0 0 0
154 0 0 10.6923 0 0 0
155 0 0 10.6923 0 0 0
156 0 0 3 0 0 0
157 0 0 3 0 0 0
158 0 0 0 0 0 0
159 0 0 0 0 0 0
160 0 0 0 0 0 0
161 0 0 0 0 0 0
162 0 0 0 0 0 0
163 0 0 0 0 0 0
164 0 0 27.5402 0 0 0
165 0 0 0 0 0 0
166 0 0 0 0 0 0
167 0 0 0 0 0 0
168 0 0 0 0 0 0
169 0 0 0 0 0 0
170 0 0 0 0 0 0
171 0 0 0 0 0 0
172 0 0 0 0 0 0
173 0 0 0 0 0 0
174 0 0 0 0 0 0
175 0 0 0 0 0 0
176 0 0 0 0 0 0
177 0 0 0 0 0 0
178 0 0 0 0 0 0
179 0 0 0 0 0.13 0
180 0 0 1.8 0 0 0
181 0 0 1.8 0 0 0
182 0 0 27.5402 0 0 0
183 0 0 1.8 0 0 0
184 0 0 27.5402 0 0 0

AngleAngleTorsion Coeffs

1 -22.045 112.67 112.67
2 0 112.67 108.4
3 0 108.4 108.4
4 0 108.4 108.4
5 0 112.67 108.4
6 0 108.4 108.4
7 0 108.4 109.5
8 0 108.4 109.5
9 0 108.4 110.5
10 0 108.4 120.05
11 0 111 120.05
12 0 108.4 120
13 0 111 120.05
14 0 108.4 120.05
15 0 111 120.05
16 0 109.5 120.05
17 0 109.5 120
18 0 111 120
19 0 120 109.5
20 0 120 109.5
21 0 108.4 120
22 0 108.4 120.05
23 0 111 120.05
24 0 108.4 120
25 0 111 120
26 0 111 120.05
27 0 109.5 120.05
28 0 111 120.05
29 0 108.4 120.05
30 0 111 120
31 0 111 120
32 0 108.4 120
33 0 109.5 180
34 0 109.5 180
35 0 110.5 108
36 0 110.5 108
37 0 109.5 120.05
38 0 111 120
39 0 111 120.05
40 0 110.5 120.05
41 0 120.05 120.05
42 -14.4097 120.05 118.9
43 0 0 0
44 0 120 120
45 0 120.05 120
46 0 118.9 120
47 0 0 0
48 0 0 0
49 0 120 118.9
50 -14.4097 120.05 118.9
51 0 120.05 120
52 0 118.9 120
53 0 118.9 120
54 0 118.9 104.17
55 0 120 104.17
56 0 120.05 104.17
57 0 118.9 104.17
58 0 104.17 104.17
59 0 120 120
60 0 120 120
61 0 120 120
62 0 120 120
63 0 120 120
64 0 120 120
65 0 120 120
66 0 120 120
67 0 120 120
68 0 120.05 120.05
69 -14.4097 120.05 118.9
70 0 0 0
71 0 118.9 120
72 0 120.05 120
73 -14.4097 120.05 118.9
74 0 0 0
75 0 0 0
76 0 120 118.9
77 0 118.9 120
78 0 118.9 120
79 0 120 180
80 0 120 180
81 0 120 180
82 0 120 180
83 0 120 180
84 0 104.17 103.43
85 0 104.17 103.43
86 0 104.17 103.43
87 0 126.26 109.5
88 0 120 120
89 0 120 120
90 0 120 120
91 0 117.6 117.6
92 0 126.26 117.6
93 0 120 117.6
94 0 120 120
95 0 117.6 120
96 0 126.26 120
97 0 120 120
98 0 117.6 120
99 0 120 120
100 0 120 120
101 0 120 120
102 0 120 120
103 0 120 120
104 0 120 120
105 0 120 120
106 0 120 120
107 0 120 180
108 0 120 180
109 0 120 180
110 0 120 180
111 0 120 180
112 0 120 180
113 0 120 180
114 0 120 180
115 0 120 180
116 0 111 120
117 0 109.5 120.05
118 0 111 120
119 0 111 120
120 0 111 120.05
121 0 109.5 120.05
122 0 110.5 120.05
123 -14.4097 120.05 118.9
124 0 120.05 120
125 -14.4097 120.05 118.9
126 0 120 118.9
127 0 0 0
128 0 118.9 120
129 0 120 104.17
130 0 118.9 104.17
131 0 120.05 104.17
132 0 120 120
133 0 120 120
134 0 120 120
135 0 120 120
136 0 120 120
137 0 120 120
138 0 120 120
139 0 120 120
140 0 120.05 120.05
141 -14.4097 120.05 118.9
142 0 0 0
143 0 120 120
144 0 120.05 120
145 0 118.9 120
146 0 0 0
147 0 0 0
148 0 120 118.9
149 -14.4097 120.05 118.9
150 0 118.9 120
151 0 120.05 120
152 0 120 120
153 0 118.9 120
154 0 118.9 104.17
155 0 118.9 104.17
156 0 120.05 104.17
157 0 120 104.17
158 0 120 180
159 0 120 180
160 0 120 180
161 0 120 180
162 0 120 180
163 0 120 180
164 0 104.17 103.43
165 0 120 180
166 0 120 180
167 0 120 180
168 0 120 180
169 0 120 180
170 0 120 180
171 0 120 180
172 0 180 180
173 0 180 180
174 0 180 180
175 0 180 180
176 0 180 180
177 0 180 180
178 0 180 180
179 0 110.5 108
180 0 104.17 108
181 0 104.17 108
182 0 104.17 103.43
183 0 120 103.43
184 0 104.17 103.43

EndBondTorsion Coeffs

1 -0.0732 0 0 -0.0732 0 0 1.53 1.53
2 0 0 0 0 0 0 1.53 1.501
3 0 0 0 0 0 0 1.501 1.501
4 0 0 0 0 0 0 1.501 1.501
5 0 0 0 0 0 0 1.53 1.501
6 0 0 0 0 0 0 1.501 1.501
7 0 0 0 0 0 0 1.501 1.42
8 0 0 0 0 0 0 1.501 1.42
9 0 0 0 0 0 0 1.501 1.38
10 0 0 0 0 0 0 1.53 1.417
11 0 0 0 0 0 0 1.501 1.417
12 0 0 0 0 0 0 1.53 1.5
13 0 0 0 0 0 0 1.501 1.417
14 0 0 0 0 0 0 1.53 1.417
15 0 0 0 0 0 0 1.501 1.417
16 0 0 0 0 0 0 1.506 1.417
17 0 0 0 0 0 0 1.506 1.4
18 0 0 0 0 0 0 1.501 1.4
19 0 0 0 0 0 0 1.5 1.501
20 0 0 0 0 0 0 1.425 1.501
21 0 0 0 0 0 0 1.53 1.501
22 0 0 0 0 0 0 1.53 1.417
23 0 0 0 0 0 0 1.501 1.417
24 0 0 0 0 0 0 1.53 1.5
25 0 0 0 0 0 0 1.501 1.5
26 0 0 0 0 0 0 1.501 1.417
27 0 0 0 0 0 0 1.506 1.417
28 0 0 0 0 0 0 1.501 1.417
29 0 0 0 0 0 0 1.53 1.417
30 0 0 0 0 0 0 1.501 1.4
31 0 0 0 0 0 0 1.501 1.4
32 0 0 0 0 0 0 1.53 1.4
33 0 0 0 0 0 0 1.53 1.204
34 0 0 0 0 0 0 1.501 1.204
35 0 0 0 0 0 0 1.53 1.3597
36 0 0 0 0 0 0 1.501 1.3597
37 0 0 0 0 0 0 1.506 1.417
38 0 0 0 0 0 0 1.501 1.5
39 0 0 0 0 0 0 1.501 1.417
40 0 0 0 0 0 0 1.38 1.417
41 0 0 0 0 0 0 1.501 1.501
42 0 0.2421 0 0 -0.6918 0 1.501 1.417
43 0 0 0 0 0 0 0 0
44 0 0 0 0 0 0 1.5 1.5
45 0 0 0 0 0 0 1.501 1.5
46 0 0 0 0 0 0 1.417 1.5
47 0 0 0 0 0 0 0 0
48 0 0 0 0 0 0 0 0
49 0 0 0 0 0 0 1.5 1.417
50 0 0.2421 0 0 -0.6918 0 1.501 1.417
51 0 0 0 0 0 0 1.501 1.4
52 0 0 0 0 0 0 1.417 1.4
53 0 0 0 0 0 0 1.417 1.4
54 0 -30.5414 0 0 -19.3285 0 1.417 1.3597
55 0 0 0 0 0 0 1.5 1.3597
56 0 0 0 0 0 0 1.501 1.3597
57 0 -30.5414 0 0 -19.3285 0 1.417 1.3597
58 0 0 0 0 0 0 1.3597 1.3597
59 0 0 0 0 0 0 1.5 1.417
60 0 0 0 0 0 0 1.5 1.501
61 0 0 0 0 0 0 1.34 1.501
62 0 0 0 0 0 0 1.34 1.417
63 0 0 0 0 0 0 1.5 1.501
64 0 0 0 0 0 0 1.5 1.417
65 0 0 0 0 0 0 1.5 1.417
66 0 0 0 0 0 0 1.425 1.417
67 0 0 0 0 0 0 1.425 1.417
68 0 0 0 0 0 0 1.501 1.501
69 0 0.2421 0 0 -0.6918 0 1.501 1.417
70 0 0 0 0 0 0 0 0
71 0 0 0 0 0 0 1.417 1.5
72 0 0 0 0 0 0 1.501 1.5
73 0 0.2421 0 0 -0.6918 0 1.501 1.417
74 0 0 0 0 0 0 0 0
75 0 0 0 0 0 0 0 0
76 0 0 0 0 0 0 1.5 1.417
77 0 0 0 0 0 0 1.417 1.4
78 0 0 0 0 0 0 1.417 1.4
79 0 0 0 0 0 0 1.417 1.4
80 0 0 0 0 0 0 1.417 1.4
81 0 0 0 0 0 0 1.501 1.204
82 0 0 0 0 0 0 1.417 1.204
83 0 0 0 0 0 0 1.417 1.204
84 0 -10.4096 0 0 -22.4567 0 1.417 1.3597
85 0 -10.4096 0 0 -22.4567 0 1.417 1.3597
86 0 -10.4096 0 0 -22.4567 0 1.417 1.3597
87 0 0 0 0 0 0 1.34 1.501
88 0 0 0 0 0 0 1.5 1.417
89 0 0 0 0 0 0 1.34 1.417
90 0 0 0 0 0 0 1.5 1.5
91 0 0 0 0 0 0 1.34 1.34
92 0 0 0 0 0 0 1.506 1.34
93 0 0 0 0 0 0 1.5 1.34
94 0 0 0 0 0 0 1.5 1.5
95 0 0 0 0 0 0 1.34 1.5
96 0 0 0 0 0 0 1.506 1.5
97 0 0 0 0 0 0 1.5 1.5
98 0 0 0 0 0 0 1.34 1.425
99 0 0 0 0 0 0 1.5 1.425
100 0 0 0 0 0 0 1.425 1.425
101 0 0 0 0 0 0 1.5 1.425
102 0 0 0 0 0 0 1.5 1.417
103 0 0 0 0 0 0 1.5 1.417
104 0 0 0 0 0 0 1.34 1.417
105 0 0 0 0 0 0 1.506 1.417
106 0 0 0 0 0 0 1.5 1.417
107 0 0 0 0 0 0 1.5 1.425
108 0 0 0 0 0 0 1.34 1.425
109 0 0 0 0 0 0 1.34 1.4
110 0 0 0 0 0 0 1.5 1.4
111 0 0 0 0 0 0 1.5 1.4
112 0 0 0 0 0 0 1.5 1.204
113 0 0 0 0 0 0 1.5 1.204
114 0 0 0 0 0 0 1.34 1.204
115 0 0 0 0 0 0 1.506 1.204
116 0 0 0 0 0 0 1.501 1.501
117 0 0 0 0 0 0 1.506 1.417
118 0 0 0 0 0 0 1.501 1.5
119 0 0 0 0 0 0 1.501 1.501
120 0 0 0 0 0 0 1.501 1.417
121 0 0 0 0 0 0 1.42 1.417
122 0 0 0 0 0 0 1.38 1.417
123 0 0.2421 0 0 -0.6918 0 1.501 1.417
124 0 0 0 0 0 0 1.501 1.5
125 0 0.2421 0 0 -0.6918 0 1.501 1.417
126 0 0 0 0 0 0 1.5 1.417
127 0 0 0 0 0 0 0 0
128 0 0 0 0 0 0 1.417 1.4
129 0 0 0 0 0 0 1.5 1.3597
130 0 -30.5414 0 0 -19.3285 0 1.417 1.3597
131 0 0 0 0 0 0 1.501 1.3597
132 0 0 0 0 0 0 1.5 1.501
133 0 0 0 0 0 0 1.34 1.417
134 0 0 0 0 0 0 1.34 1.501
135 0 0 0 0 0 0 1.5 1.501
136 0 0 0 0 0 0 1.5 1.417
137 0 0 0 0 0 0 1.425 1.417
138 0 0 0 0 0 0 1.425 1.501
139 0 0 0 0 0 0 1.425 1.417
140 0 0 0 0 0 0 1.501 1.501
141 0 0.2421 0 0 -0.6918 0 1.501 1.417
142 0 0 0 0 0 0 0 0
143 0 0 0 0 0 0 1.5 1.5
144 0 0 0 0 0 0 1.501 1.5
145 0 0 0 0 0 0 1.417 1.5
146 0 0 0 0 0 0 0 0
147 0 0 0 0 0 0 0 0
148 0 0 0 0 0 0 1.5 1.417
149 0 0.2421 0 0 -0.6918 0 1.501 1.417
150 0 0 0 0 0 0 1.417 1.4
151 0 0 0 0 0 0 1.501 1.4
152 0 0 0 0 0 0 1.5 1.4
153 0 0 0 0 0 0 1.417 1.4
154 0 -30.5414 0 0 -19.3285 0 1.417 1.3597
155 0 -30.5414 0 0 -19.3285 0 1.417 1.3597
156 0 0 0 0 0 0 1.501 1.3597
157 0 0 0 0 0 0 1.5 1.3597
158 0 0 0 0 0 0 1.417 1.425
159 0 0 0 0 0 0 1.501 1.425
160 0 0 0 0 0 0 1.501 1.4
161 0 0 0 0 0 0 1.417 1.4
162 0 0 0 0 0 0 1.417 1.204
163 0 0 0 0 0 0 1.501 1.204
164 0 -10.4096 0 0 -22.4567 0 1.417 1.3597
165 0 0 0 0 0 0 1.417 1.425
166 0 0 0 0 0 0 1.3597 1.4
167 0 0 0 0 0 0 1.3597 1.425
168 0 0 0 0 0 0 1.34 1.4
169 0 0 0 0 0 0 1.5 1.425
170 0 0 0 0 0 0 1.417 1.4
171 0 0 0 0 0 0 1.417 1.425
172 0 0 0 0 0 0 1.4 1.425
173 0 0 0 0 0 0 1.425 1.425
174 0 0 0 0 0 0 1.4 1.4
175 0 0 0 0 0 0 1.4 1.4
176 0 0 0 0 0 0 1.425 1.4
177 0 0 0 0 0 0 1.42 1.4
178 0 0 0 0 0 0 1.425 1.204
179 0 0 0 0 0 0 1.501 1.3597
180 0 0 0 0 0 0 1.417 1.38
181 0 0 0 0 0 0 1.417 1.38
182 0 -10.4096 0 0 -22.4567 0 1.417 1.3597
183 0 0 0 0 0 0 1.4 1.3597
184 0 -10.4096 0 0 -22.4567 0 1.417 1.3597

MiddleBondTorsion Coeffs

1 -17.787 -7.1877 0 1.53
2 0 0 0 1.53
3 0 0 0 1.53
4 0 0 0 1.53
5 0 0 0 1.53
6 0 0 0 1.53
7 0 0 0 1.53
8 0 0 0 1.53
9 0 0 0 1.53
10 0 0 0 1.501
11 0 0 0 1.501
12 0 0 0 1.501
13 0 0 0 1.501
14 0 0 0 1.501
15 0 0 0 1.501
16 0 0 0 1.501
17 0 0 0 1.501
18 0 0 0 1.501
19 0 0 0 1.506
20 0 0 0 1.506
21 0 0 0 1.501
22 0 0 0 1.501
23 0 0 0 1.501
24 0 0 0 1.501
25 0 0 0 1.501
26 0 0 0 1.501
27 0 0 0 1.501
28 0 0 0 1.501
29 0 0 0 1.501
30 0 0 0 1.501
31 0 0 0 1.501
32 0 0 0 1.501
33 0 0 0 1.42
34 0 0 0 1.42
35 0 0 0 1.38
36 0 0 0 1.38
37 0 0 0 1.501
38 0 0 0 1.501
39 0 0 0 1.501
40 0 0 0 1.501
41 0 0 0 1.417
42 0 9.1792 0 1.417
43 0 0 0 0
44 0 0 0 1.417
45 0 0 0 1.417
46 0 0 0 1.417
47 0 0 0 0
48 0 0 0 0
49 0 0 0 1.417
50 0 9.1792 0 1.417
51 0 0 0 1.417
52 0 0 0 1.417
53 0 0 0 1.417
54 0 26.4272 0 1.417
55 0 0 0 1.417
56 0 0 0 1.417
57 0 26.4272 0 1.417
58 0 0 0 1.417
59 0 0 0 1.5
60 0 0 0 1.5
61 0 0 0 1.5
62 0 0 0 1.5
63 0 0 0 1.5
64 0 0 0 1.5
65 0 0 0 1.5
66 0 0 0 1.5
67 0 0 0 1.5
68 0 0 0 1.417
69 0 9.1792 0 1.417
70 0 0 0 0
71 0 0 0 1.417
72 0 0 0 1.417
73 0 9.1792 0 1.417
74 0 0 0 0
75 0 0 0 0
76 0 0 0 1.417
77 0 0 0 1.417
78 0 0 0 1.417
79 0 0 0 1.4
80 0 0 0 1.4
81 0 0 0 1.4
82 0 0 0 1.4
83 0 0 0 1.4
84 0 42.2966 0 1.3597
85 0 42.2966 0 1.3597
86 0 42.2966 0 1.3597
87 0 0 0 1.506
88 0 0 0 1.5
89 0 0 0 1.5
90 0 0 0 1.34
91 0 0 0 1.34
92 0 0 0 1.34
93 0 0 0 1.34
94 0 0 0 1.34
95 0 0 0 1.34
96 0 0 0 1.34
97 0 0 0 1.34
98 0 0 0 1.34
99 0 0 0 1.34
100 0 0 0 1.34
101 0 0 0 1.34
102 0 0 0 1.5
103 0 0 0 1.5
104 0 0 0 1.5
105 0 0 0 1.5
106 0 0 0 1.5
107 0 0 0 1.425
108 0 0 0 1.425
109 0 0 0 1.425
110 0 0 0 1.425
111 0 0 0 1.425
112 0 0 0 1.425
113 0 0 0 1.425
114 0 0 0 1.425
115 0 0 0 1.425
116 0 0 0 1.501
117 0 0 0 1.501
118 0 0 0 1.501
119 0 0 0 1.501
120 0 0 0 1.501
121 0 0 0 1.501
122 0 0 0 1.501
123 0 9.1792 0 1.417
124 0 0 0 1.417
125 0 9.1792 0 1.417
126 0 0 0 1.417
127 0 0 0 0
128 0 0 0 1.417
129 0 0 0 1.417
130 0 26.4272 0 1.417
131 0 0 0 1.417
132 0 0 0 1.5
133 0 0 0 1.5
134 0 0 0 1.5
135 0 0 0 1.5
136 0 0 0 1.5
137 0 0 0 1.5
138 0 0 0 1.5
139 0 0 0 1.5
140 0 0 0 1.417
141 0 9.1792 0 1.417
142 0 0 0 0
143 0 0 0 1.417
144 0 0 0 1.417
145 0 0 0 1.417
146 0 0 0 0
147 0 0 0 0
148 0 0 0 1.417
149 0 9.1792 0 1.417
150 0 0 0 1.417
151 0 0 0 1.417
152 0 0 0 1.417
153 0 0 0 1.417
154 0 26.4272 0 1.417
155 0 26.4272 0 1.417
156 0 0 0 1.417
157 0 0 0 1.417
158 0 0 0 1.4
159 0 0 0 1.4
160 0 0 0 1.4
161 0 0 0 1.4
162 0 0 0 1.4
163 0 0 0 1.4
164 0 42.2966 0 1.3597
165 0 0 0 1.4
166 0 0 0 1.4
167 0 0 0 1.4
168 0 0 0 1.425
169 0 0 0 1.425
170 0 0 0 1.4
171 0 0 0 1.4
172 0 0 0 1.204
173 0 0 0 1.204
174 0 0 0 1.204
175 0 0 0 1.204
176 0 0 0 1.204
177 0 0 0 1.204
178 0 0 0 1.204
179 0 0 0 1.38
180 0 0 0 1.3597
181 0 0 0 1.3597
182 0 42.2966 0 1.3597
183 0 0 0 1.3597
184 0 42.2966 0 1.3597

BondBond13 Coeffs

1 0 1.53 1.53
2 0 1.53 1.501
3 0 1.501 1.501
4 0 1.501 1.501
5 0 1.53 1.501
6 0 1.501 1.501
7 0 1.501 1.42
8 0 1.501 1.42
9 0 1.501 1.38
10 0 1.53 1.417
11 0 1.501 1.417
12 0 1.53 1.5
13 0 1.501 1.417
14 0 1.53 1.417
15 0 1.501 1.417
16 0 1.506 1.417
17 0 1.506 1.4
18 0 1.501 1.4
19 0 1.5 1.501
20 0 1.425 1.501
21 0 1.53 1.501
22 0 1.53 1.417
23 0 1.501 1.417
24 0 1.53 1.5
25 0 1.501 1.5
26 0 1.501 1.417
27 0 1.506 1.417
28 0 1.501 1.417
29 0 1.53 1.417
30 0 1.501 1.4
31 0 1.501 1.4
32 0 1.53 1.4
33 0 1.53 1.204
34 0 1.501 1.204
35 0 1.53 1.3597
36 0 1.501 1.3597
37 0 1.506 1.417
38 0 1.501 1.5
39 0 1.501 1.417
40 0 1.38 1.417
41 0 1.501 1.501
42 2.5085 1.501 1.417
43 0 0 0
44 0 1.5 1.5
45 0 1.501 1.5
46 0 1.417 1.5
47 0 0 0
48 0 0 0
49 0 1.5 1.417
50 2.5085 1.501 1.417
51 0 1.501 1.4
52 0 1.417 1.4
53 0 1.417 1.4
54 -73.841 1.417 1.3597
55 0 1.5 1.3597
56 0 1.501 1.3597
57 -73.841 1.417 1.3597
58 0 1.3597 1.3597
59 0 1.5 1.417
60 0 1.5 1.501
61 0 1.34 1.501
62 0 1.34 1.417
63 0 1.5 1.501
64 0 1.5 1.417
65 0 1.5 1.417
66 0 1.425 1.417
67 0 1.425 1.417
68 0 1.501 1.501
69 2.5085 1.501 1.417
70 0 0 0
71 0 1.417 1.5
72 0 1.501 1.5
73 2.5085 1.501 1.417
74 0 0 0
75 0 0 0
76 0 1.5 1.417
77 0 1.417 1.4
78 0 1.417 1.4
79 0 1.417 1.4
80 0 1.417 1.4
81 0 1.501 1.204
82 0 1.417 1.204
83 0 1.417 1.204
84 -73.841 1.417 1.3597
85 -73.841 1.417 1.3597
86 -73.841 1.417 1.3597
87 0 1.34 1.501
88 0 1.5 1.417
89 0 1.34 1.417
90 0 1.5 1.5
91 0 1.34 1.34
92 0 1.506 1.34
93 0 1.5 1.34
94 0 1.5 1.5
95 0 1.34 1.5
96 0 1.506 1.5
97 0 1.5 1.5
98 0 1.34 1.425
99 0 1.5 1.425
100 0 1.425 1.425
101 0 1.5 1.425
102 0 1.5 1.417
103 0 1.5 1.417
104 0 1.34 1.417
105 0 1.506 1.417
106 0 1.5 1.417
107 0 1.5 1.425
108 0 1.34 1.425
109 0 1.34 1.4
110 0 1.5 1.4
111 0 1.5 1.4
112 0 1.5 1.204
113 0 1.5 1.204
114 0 1.34 1.204
115 0 1.506 1.204
116 0 1.501 1.501
117 0 1.506 1.417
118 0 1.501 1.5
119 0 1.501 1.501
120 0 1.501 1.417
121 0 1.42 1.417
122 0 1.38 1.417
123 2.5085 1.501 1.417
124 0 1.501 1.5
125 2.5085 1.501 1.417
126 0 1.5 1.417
127 0 0 0
128 0 1.417 1.4
129 0 1.5 1.3597
130 -73.841 1.417 1.3597
131 0 1.501 1.3597
132 0 1.5 1.501
133 0 1.34 1.417
134 0 1.34 1.501
135 0 1.5 1.501
136 0 1.5 1.417
137 0 1.425 1.417
138 0 1.425 1.501
139 0 1.425 1.417
140 0 1.501 1.501
141 2.5085 1.501 1.417
142 0 0 0
143 0 1.5 1.5
144 0 1.501 1.5
145 0 1.417 1.5
146 0 0 0
147 0 0 0
148 0 1.5 1.417
149 2.5085 1.501 1.417
150 0 1.417 1.4
151 0 1.501 1.4
152 0 1.5 1.4
153 0 1.417 1.4
154 -73.841 1.417 1.3597
155 -73.841 1.417 1.3597
156 0 1.501 1.3597
157 0 1.5 1.3597
158 0 1.417 1.425
159 0 1.501 1.425
160 0 1.501 1.4
161 0 1.417 1.4
162 0 1.417 1.204
163 0 1.501 1.204
164 -73.841 1.417 1.3597
165 0 1.417 1.425
166 0 1.3597 1.4
167 0 1.3597 1.425
168 0 1.34 1.4
169 0 1.5 1.425
170 0 1.417 1.4
171 0 1.417 1.425
172 0 1.4 1.425
173 0 1.425 1.425
174 0 1.4 1.4
175 0 1.4 1.4
176 0 1.425 1.4
177 0 1.42 1.4
178 0 1.425 1.204
179 0 1.501 1.3597
180 0 1.417 1.38
181 0 1.417 1.38
182 -73.841 1.417 1.3597
183 0 1.4 1.3597
184 -73.841 1.417 1.3597

AngleTorsion Coeffs

1 0.3886 -0.3139 0.1389 0.3886 -0.3139 0.1389 112.67 112.67
2 0 0 0 0 0 0 112.67 108.4
3 0 0 0 0 0 0 108.4 108.4
4 0 0 0 0 0 0 108.4 108.4
5 0 0 0 0 0 0 112.67 108.4
6 0 0 0 0 0 0 108.4 108.4
7 0 0 0 0 0 0 108.4 109.5
8 0 0 0 0 0 0 108.4 109.5
9 0 0 0 0 0 0 108.4 110.5
10 0 0 0 0 0 0 108.4 120.05
11 0 0 0 0 0 0 111 120.05
12 0 0 0 0 0 0 108.4 120
13 0 0 0 0 0 0 111 120.05
14 0 0 0 0 0 0 108.4 120.05
15 0 0 0 0 0 0 111 120.05
16 0 0 0 0 0 0 109.5 120.05
17 0 0 0 0 0 0 109.5 120
18 0 0 0 0 0 0 111 120
19 0 0 0 0 0 0 120 109.5
20 0 0 0 0 0 0 120 109.5
21 0 0 0 0 0 0 108.4 120
22 0 0 0 0 0 0 108.4 120.05
23 0 0 0 0 0 0 111 120.05
24 0 0 0 0 0 0 108.4 120
25 0 0 0 0 0 0 111 120
26 0 0 0 0 0 0 111 120.05
27 0 0 0 0 0 0 109.5 120.05
28 0 0 0 0 0 0 111 120.05
29 0 0 0 0 0 0 108.4 120.05
30 0 0 0 0 0 0 111 120
31 0 0 0 0 0 0 111 120
32 0 0 0 0 0 0 108.4 120
33 0 0 0 0 0 0 109.5 180
34 0 0 0 0 0 0 109.5 180
35 0 0 0 0 0 0 110.5 108
36 0 0 0 0 0 0 110.5 108
37 0 0 0 0 0 0 109.5 120.05
38 0 0 0 0 0 0 111 120
39 0 0 0 0 0 0 111 120.05
40 0 0 0 0 0 0 110.5 120.05
41 0 0 0 0 0 0 120.05 120.05
42 0 -4.4683 0 0 3.8987 0 120.05 118.9
43 0 0 0 0 0 0 0 0
44 0 0 0 0 0 0 120 120
45 0 0 0 0 0 0 120.05 120
46 0 0 0 0 0 0 118.9 120
47 0 0 0 0 0 0 0 0
48 0 0 0 0 0 0 0 0
49 0 0 0 0 0 0 120 118.9
50 0 -4.4683 0 0 3.8987 0 120.05 118.9
51 0 0 0 0 0 0 120.05 120
52 0 0 0 0 0 0 118.9 120
53 0 0 0 0 0 0 118.9 120
54 0 15.072 0 0 22.837 0 118.9 104.17
55 0 0 0 0 0 0 120 104.17
56 0 0 0 0 0 0 120.05 104.17
57 0 15.072 0 0 22.837 0 118.9 104.17
58 0 0 0 0 0 0 104.17 104.17
59 0 0 0 0 0 0 120 120
60 0 0 0 0 0 0 120 120
61 0 0 0 0 0 0 120 120
62 0 0 0 0 0 0 120 120
63 0 0 0 0 0 0 120 120
64 0 0 0 0 0 0 120 120
65 0 0 0 0 0 0 120 120
66 0 0 0 0 0 0 120 120
67 0 0 0 0 0 0 120 120
68 0 0 0 0 0 0 120.05 120.05
69 0 -4.4683 0 0 3.8987 0 120.05 118.9
70 0 0 0 0 0 0 0 0
71 0 0 0 0 0 0 118.9 120
72 0 0 0 0 0 0 120.05 120
73 0 -4.4683 0 0 3.8987 0 120.05 118.9
74 0 0 0 0 0 0 0 0
75 0 0 0 0 0 0 0 0
76 0 0 0 0 0 0 120 118.9
77 0 0 0 0 0 0 118.9 120
78 0 0 0 0 0 0 118.9 120
79 0 0 0 0 0 0 120 180
80 0 0 0 0 0 0 120 180
81 0 0 0 0 0 0 120 180
82 0 0 0 0 0 0 120 180
83 0 0 0 0 0 0 120 180
84 0 35.3158 0 0 38.1416 0 104.17 103.43
85 0 35.3158 0 0 38.1416 0 104.17 103.43
86 0 35.3158 0 0 38.1416 0 104.17 103.43
87 0 0 0 0 0 0 126.26 109.5
88 0 0 0 0 0 0 120 120
89 0 0 0 0 0 0 120 120
90 0 0 0 0 0 0 120 120
91 0 0 0 0 0 0 117.6 117.6
92 0 0 0 0 0 0 126.26 117.6
93 0 0 0 0 0 0 120 117.6
94 0 0 0 0 0 0 120 120
95 0 0 0 0 0 0 117.6 120
96 0 0 0 0 0 0 126.26 120
97 0 0 0 0 0 0 120 120
98 0 0 0 0 0 0 117.6 120
99 0 0 0 0 0 0 120 120
100 0 0 0 0 0 0 120 120
101 0 0 0 0 0 0 120 120
102 0 0 0 0 0 0 120 120