LAMMPS data file via write_data, version 29 Aug 2024, timestep = 1000000, units = real

4547 atoms
9 atom types
5538 bonds
20 bond types
14990 angles
71 angle types
12198 dihedrals
193 dihedral types
2121 impropers
75 improper types

-11.695427565746735 11.695427565746735 xlo xhi
-13.539457687985191 13.539457687985191 ylo yhi
-14.497846028015871 14.497846028015871 zlo zhi

Atom Type Labels

1 c
2 c5
3 c=2
4 cp
5 ct
6 hc
7 op
8 cg1
9 cge

Bond Type Labels

1 c-c
2 c-c5
3 c-c=2
4 c-cp
5 c-ct
6 c-op
7 c5-c5
8 c=2-c5
9 c5-cp
10 c5-ct
11 c5-op
12 c=2-c=2
13 c=2-cp
14 c=2-ct
15 cp-cp
16 cp-ct
17 cp-hc
18 cp-op
19 ct-ct
20 cg1-cge

Angle Type Labels

1 c-c-c
2 c-c-c5
3 c-c-cp
4 c-c-ct
5 c-c-op
6 c-c5-c5
7 c-c5-c=2
8 c-c5-cp
9 c-c5-ct
10 c-c=2-c5
11 c-c=2-c=2
12 c-c=2-cp
13 c-c=2-ct
14 c-cp-c
15 c-cp-c5
16 c-cp-c=2
17 c-cp-cp
18 c-cp-ct
19 c-ct-cp
20 c-op-cp
21 c5-c-c5
22 c5-c-c=2
23 c5-c-cp
24 c5-c-op
25 c5-c5-c5
26 c5-c5-c=2
27 c5-c5-cp
28 c5-c5-ct
29 c5-c5-op
30 c5-c=2-c5
31 c5-c=2-c=2
32 c5-c=2-cp
33 c5-c=2-ct
34 c5-cp-c5
35 c5-cp-c=2
36 c5-cp-cp
37 c5-cp-ct
38 c5-cp-op
39 c5-ct-c=2
40 c5-ct-cp
41 c5-op-c5
42 c5-op-cp
43 c=2-c-cp
44 c=2-c5-cp
45 c=2-c=2-c=2
46 c=2-c=2-cp
47 c=2-c=2-ct
48 c=2-cp-cp
49 c=2-cp-op
50 c=2-ct-c=2
51 c=2-ct-cp
52 c=2-ct-ct
53 cp-c-cp
54 cp-c-ct
55 cp-c-op
56 cp-c5-cp
57 cp-c5-ct
58 cp-c5-op
59 cp-c=2-cp
60 cp-c=2-ct
61 cp-cp-cp
62 cp-cp-ct
63 cp-cp-hc
64 cp-cp-op
65 cp-ct-cp
66 cp-ct-ct
67 cp-op-cp
68 ct-c=2-ct
69 ct-cp-op
70 cge-cg1-cg1
71 cge-cg1-cge

Dihedral Type Labels

1 c-c-c-c
2 c-c-c-c5
3 c5-c-c-c5
4 cp-c-c-cp
5 c-c-c-cp
6 c5-c-c-cp
7 cp-c-c-ct
8 cp-c-c-op
9 c-c-c-op
10 c5-c-c-op
11 c-c-c5-c5
12 c5-c-c5-c5
13 c-c-c5-c=2
14 cp-c-c5-cp
15 c-c-c5-cp
16 c5-c-c5-cp
17 c=2-c-c5-cp
18 c5-c-c5-ct
19 cp-c-c5-ct
20 cp-c=2-c-c5
21 cp-c=2-c-cp
22 ct-c=2-c-cp
23 ct-c=2-c-c5
24 c-c-cp-c
25 c-c-cp-c5
26 c5-c-cp-c5
27 c-c-cp-c=2
28 c5-c-cp-c=2
29 c5-c-cp-cp
30 c=2-c-cp-cp
31 cp-c-cp-cp
32 c-c-cp-cp
33 c5-c-cp-ct
34 cp-c-cp-ct
35 c-c-cp-ct
36 cp-c-ct-cp
37 c-c-ct-cp
38 cp-c-op-cp
39 c-c-op-cp
40 c5-c-op-cp
41 c=2-c-c5-c5
42 cp-c-c5-c=2
43 cp-c-c5-c5
44 op-c-c5-cp
45 op-c-c5-c5
46 c-c5-c5-c
47 c-c5-c5-c5
48 c5-c5-c5-c5
49 c=2-c5-c5-c=2
50 c-c5-c5-c=2
51 c5-c5-c5-c=2
52 cp-c5-c5-cp
53 c5-c5-c5-cp
54 c=2-c5-c5-cp
55 c-c5-c5-cp
56 c=2-c5-c5-ct
57 c5-c5-c5-ct
58 cp-c5-c5-ct
59 cp-c5-c5-op
60 c=2-c5-c5-op
61 c-c5-c5-op
62 c5-c5-c5-op
63 c5-c=2-c5-c5
64 c=2-c=2-c5-c
65 c=2-c=2-c5-c5
66 cp-c=2-c5-c5
67 cp-c=2-c5-cp
68 ct-c=2-c5-cp
69 ct-c=2-c5-c5
70 c-c5-cp-c
71 c5-c5-cp-c5
72 c-c5-cp-c5
73 c5-c5-cp-c=2
74 c-c5-cp-c=2
75 c-c5-cp-cp
76 c5-c5-cp-cp
77 c=2-c5-cp-cp
78 cp-c5-cp-cp
79 cp-c5-cp-ct
80 c5-c5-cp-ct
81 c-c5-cp-op
82 c5-c5-cp-op
83 cp-c5-cp-op
84 c-c5-ct-c=2
85 c5-c5-ct-c=2
86 c-c5-ct-cp
87 c5-c5-ct-cp
88 cp-c5-ct-cp
89 c5-c5-op-c5
90 c5-c5-op-cp
91 cp-c5-op-cp
92 c=2-c=2-c-cp
93 c5-c=2-c-cp
94 c-c=2-c5-c5
95 c5-c=2-c5-cp
96 c-c=2-c5-cp
97 c=2-c=2-c5-cp
98 c-c=2-c=2-c5
99 c5-c=2-c=2-c5
100 c=2-c=2-c=2-c=2
101 c-c=2-c=2-c=2
102 c5-c=2-c=2-c=2
103 cp-c=2-c=2-cp
104 c=2-c=2-c=2-cp
105 c5-c=2-c=2-cp
106 c=2-c=2-c=2-ct
107 c5-c=2-c=2-ct
108 ct-c=2-c=2-ct
109 cp-c=2-c=2-ct
110 c5-c=2-cp-c5
111 c5-c=2-cp-cp
112 c=2-c=2-cp-cp
113 c-c=2-cp-cp
114 cp-c=2-cp-cp
115 cp-c=2-cp-op
116 c5-c=2-ct-c=2
117 c=2-c=2-ct-c=2
118 c=2-c=2-ct-cp
119 cp-c=2-ct-cp
120 c-c=2-ct-cp
121 c5-c=2-ct-cp
122 cp-c=2-ct-ct
123 c=2-c=2-ct-ct
124 c5-c-cp-c
125 c=2-c-cp-c5
126 cp-c-cp-c=2
127 cp-c-cp-c
128 cp-c-cp-c5
129 ct-c-cp-c
130 ct-c-cp-cp
131 op-c-cp-c=2
132 op-c-cp-cp
133 c-cp-c5-c5
134 c-cp-c5-c=2
135 c-cp-c5-cp
136 c=2-cp-c5-cp
137 c5-cp-c5-cp
138 cp-cp-c5-ct
139 c=2-cp-c5-op
140 cp-cp-c5-op
141 c5-c=2-cp-c
142 c=2-c=2-cp-c5
143 c=2-c=2-cp-c
144 cp-c=2-cp-c
145 cp-c=2-cp-c5
146 ct-c=2-cp-c5
147 ct-c=2-cp-c
148 ct-c=2-cp-cp
149 c-cp-cp-c
150 c-cp-cp-c5
151 c5-cp-cp-c5
152 c=2-cp-cp-c=2
153 c-cp-cp-c=2
154 c5-cp-cp-c=2
155 c5-cp-cp-cp
156 cp-cp-cp-cp
157 c=2-cp-cp-cp
158 c-cp-cp-cp
159 cp-cp-cp-ct
160 c-cp-cp-ct
161 c=2-cp-cp-ct
162 c5-cp-cp-ct
163 cp-cp-cp-hc
164 c5-cp-cp-hc
165 c5-cp-cp-op
166 op-cp-cp-op
167 cp-cp-cp-op
168 c-cp-cp-op
169 c-cp-ct-c5
170 c-cp-ct-c=2
171 c5-cp-ct-cp
172 c-cp-ct-cp
173 cp-cp-ct-cp
174 cp-cp-ct-ct
175 c=2-cp-op-cp
176 c5-cp-op-cp
177 cp-cp-op-cp
178 cp-c5-ct-c=2
179 c=2-c=2-ct-c5
180 cp-c=2-ct-c5
181 cp-c=2-ct-c=2
182 ct-c=2-ct-cp
183 cp-cp-ct-c
184 cp-cp-ct-c5
185 cp-cp-ct-c=2
186 op-cp-ct-cp
187 cp-ct-ct-cp
188 c=2-ct-ct-cp
189 cp-c5-op-c5
190 c5-cp-op-c
191 cp-cp-op-c
192 cp-cp-op-c5
193 ct-cp-op-cp

Improper Type Labels

1 c-c5-c5-c5-nb==3
2 c-c5-c5-cp-nb==3
3 c-c5-c5-ct-nb==3
4 c-c5-c=2-cp-nb==3
5 c-c5-cp-cp-nb==3
6 c-c=2-c5-c=2-nb==3
7 c-c=2-c=2-cp-nb==3
8 c-c=2-cp-ct-nb==3
9 c-c=2-ct-ct-nb==3
10 c-cp-c-c5-nb==3
11 c-cp-c-cp-nb==3
12 c-cp-c5-cp-nb==3
13 c-cp-c=2-cp-nb==3
14 c-cp-cp-cp-nb==3
15 c-cp-cp-ct-nb==3
16 c5-c5-c5-c5-nb==3
17 c5-c5-c5-c=2-nb==3
18 c5-c5-c5-cp-nb==3
19 c5-c5-c5-ct-nb==3
20 c5-c5-c5-op-nb==3
21 c5-c5-c=2-cp-nb==3
22 c5-c5-cp-cp-nb==3
23 c5-c5-cp-op-nb==3
24 c5-c=2-c5-c=2-nb==3
25 c5-c=2-c5-cp-nb==3
26 c5-c=2-c5-ct-nb==3
27 c5-c=2-c=2-c=2-nb==3
28 c5-c=2-c=2-cp-nb==3
29 c5-c=2-c=2-ct-nb==3
30 c5-c=2-cp-cp-nb==3
31 c5-c=2-cp-ct-nb==3
32 c5-cp-c5-c=2-nb==3
33 c5-cp-c5-cp-nb==3
34 c5-cp-c=2-cp-nb==3
35 c5-cp-cp-cp-nb==3
36 c5-cp-cp-ct-nb==3
37 c5-cp-cp-op-nb==3
38 c=2-c5-cp-cp-nb==3
39 c=2-c=2-c=2-c=2-nb==3
40 c=2-c=2-c=2-cp-nb==3
41 c=2-c=2-c=2-ct-nb==3
42 c=2-c=2-cp-cp-nb==3
43 c=2-c=2-cp-ct-nb==3
44 c=2-cp-cp-cp-nb==3
45 c=2-cp-cp-op-nb==3
46 cp-c5-cp-cp-nb==3
47 cp-c5-cp-ct-nb==3
48 cp-c5-cp-op-nb==3
49 cp-c=2-cp-cp-nb==3
50 cp-c=2-cp-ct-nb==3
51 cp-cp-cp-cp-nb==3
52 cp-cp-cp-ct-nb==3
53 cp-cp-cp-hc-nb==3
54 cp-cp-cp-op-nb==3
55 cp-cp-ct-op-nb==3
56 c-c-c-c-nb!=3
57 c-c-c-c5-nb!=3
58 c-c-c-cp-nb!=3
59 c-c-c-op-nb!=3
60 c-c-c5-c5-nb!=3
61 c-c-c5-cp-nb!=3
62 c-c-c5-op-nb!=3
63 c-c-cp-cp-nb!=3
64 c-c-cp-ct-nb!=3
65 c-c-cp-op-nb!=3
66 c5-c-c5-c5-nb!=3
67 c5-c-c5-c=2-nb!=3
68 c5-c-c5-cp-nb!=3
69 c5-c-c=2-cp-nb!=3
70 c5-c-cp-cp-nb!=3
71 c5-c-cp-op-nb!=3
72 c=2-c-cp-cp-nb!=3
73 cp-c-cp-cp-nb!=3
74 cp-c-cp-ct-nb!=3
75 cp-c-cp-op-nb!=3

Masses

1 12.01115
2 12.01115
3 12.01115
4 12.01115
5 12.01115
6 1.00797
7 15.9994
8 10.01115
9 1

Pair Coeffs # lj/class2/coul/long

1 0.054 4.01
2 0.062 3.932
3 0.064 4.01
4 0.062 3.932
5 0.064 4.01
6 0.02 2.3
7 0.109 3.535
8 0.062 3.932
9 1e-05 1e-05

Bond Coeffs # morse

1 82.6961 2 1.53
2 82.6961 2 1.501
3 82.6961 1.9 1.506
4 82.6961 2 1.501
5 82.6961 1.5 1.42
6 138.265 1.3 1.38
7 150 1.4 1.42
8 82.6961 1.6 1.5
9 150 1.4 1.42
10 82.6961 1.6 1.4
11 138.265 2 1.3597
12 143.882 2.1 1.34
13 143.882 1.2 1.5
14 143.882 1.2 1.425
15 150 1.4 1.42
16 82.6961 1.6 1.4
17 98.2315 2.1 1.0982
18 138.265 2 1.3597
19 199.57 1.6 1.204
20 98.2315 1.3 0.65

Angle Coeffs # class2xe

1 112.67 39.516 -7.443 -9.5583
2 108.4 43.9594 -8.3924 -9.3379
3 108.4 43.9594 -8.3924 -9.3379
4 109.5 46 0 0
5 110.5 46 0 0
6 120.05 44.7148 -22.7352 0
7 120 80 0 0
8 120.05 44.7148 -22.7352 0
9 120 80 0 0
10 120 36.2 0 0
11 126.26 43.825 -27.7266 1.0056
12 120 36.2 0 0
13 120 36.2 0 0
14 120 80 0 0
15 120.05 44.7148 -22.7352 0
16 120 80 0 0
17 120.05 44.7148 -22.7352 0
18 120 80 0 0
19 180 200 0 0
20 108 75 0 0
21 111 44.3234 -9.4454 0
22 109.5 46 0 0
23 111 44.3234 -9.4454 0
24 110.5 46 0 0
25 120 90 0 0
26 120 80 0 0
27 120 90 0 0
28 120 80 0 0
29 104.17 101.321 -17.3072 0
30 120 36.2 0 0
31 120 36.2 0 0
32 120 36.2 0 0
33 120 36.2 0 0
34 120 90 0 0
35 120 80 0 0
36 120 90 0 0
37 120 80 0 0
38 104.17 101.321 -17.3072 0
39 180 200 0 0
40 180 200 0 0
41 103.43 112.45 -25.7326 0
42 103.43 112.45 -25.7326 0
43 109.5 46 0 0
44 120 80 0 0
45 117.6 56.48 -16.2283 -12.6333
46 120 36.2 0 0
47 120 36.2 0 0
48 120 80 0 0
49 120 60 0 0
50 180 200 0 0
51 180 200 0 0
52 180 200 0 0
53 111 44.3234 -9.4454 0
54 109.5 46 0 0
55 110.5 46 0 0
56 120 90 0 0
57 120 80 0 0
58 104.17 101.321 -17.3072 0
59 120 36.2 0 0
60 120 36.2 0 0
61 120 90 0 0
62 120 80 0 0
63 117.94 35.1558 -12.4682 0
64 104.17 101.321 -17.3072 0
65 180 200 0 0
66 180 200 0 0
67 103.43 112.45 -25.7326 0
68 120 36.2 0 0
69 120 60 0 0
70 90 50 0 0
71 180 50 0 0

BondBond Coeffs

1 82.6961 0 1.53 1.53
2 82.6961 0 1.53 1.501
3 82.6961 0 1.53 1.501
4 82.6961 0 1.53 1.42
5 110.481 0 1.53 1.38
6 116.348 0.227728 1.501 1.42
7 82.6961 0 1.501 1.5
8 116.348 0.227728 1.501 1.42
9 82.6961 0 1.501 1.4
10 82.6961 0 1.506 1.5
11 113.289 0.280218 1.506 1.34
12 113.289 0 1.506 1.5
13 113.289 0 1.506 1.425
14 82.6961 0 1.501 1.501
15 116.348 0.227728 1.501 1.42
16 113.289 0 1.501 1.5
17 116.348 0.227728 1.501 1.42
18 82.6961 0 1.501 1.4
19 82.6961 0 1.42 1.4
20 138.265 0 1.38 1.3597
21 82.6961 0 1.501 1.501
22 82.6961 0 1.501 1.506
23 82.6961 0 1.501 1.501
24 110.481 0 1.501 1.38
25 150 0 1.42 1.42
26 116.348 0 1.42 1.5
27 150 0 1.42 1.42
28 116.348 0 1.42 1.4
29 144.132 0.526899 1.42 1.3597
30 82.6961 0 1.5 1.5
31 113.289 0 1.5 1.34
32 113.289 0 1.5 1.5
33 113.289 0 1.5 1.425
34 150 0 1.42 1.42
35 146.941 0 1.42 1.5
36 150 0 1.42 1.42
37 116.348 0 1.42 1.4
38 144.132 0.526899 1.42 1.3597
39 113.289 0 1.4 1.425
40 82.6961 0 1.4 1.4
41 138.265 0.63044 1.3597 1.3597
42 138.265 0.63044 1.3597 1.3597
43 82.6961 0 1.506 1.501
44 116.348 0 1.5 1.42
45 143.882 0 1.34 1.34
46 143.882 0 1.34 1.5
47 143.882 0 1.34 1.425
48 146.941 0 1.5 1.42
49 141.073 0 1.5 1.3597
50 143.882 0 1.425 1.425
51 113.289 0 1.425 1.4
52 171.726 0 1.425 1.204
53 82.6961 0 1.501 1.501
54 82.6961 0 1.501 1.42
55 110.481 0 1.501 1.38
56 150 0 1.42 1.42
57 116.348 0 1.42 1.4
58 144.132 0.526899 1.42 1.3597
59 143.882 0 1.5 1.5
60 143.882 0 1.5 1.425
61 150 0 1.42 1.42
62 116.348 0 1.42 1.4
63 124.116 0.0659451 1.42 1.0982
64 144.132 0.526899 1.42 1.3597
65 82.6961 0 1.4 1.4
66 141.133 0 1.4 1.204
67 138.265 0.63044 1.3597 1.3597
68 143.882 0 1.425 1.425
69 110.481 0 1.4 1.3597
70 124.116 0 0.65 1.42
71 98.2315 0 0.65 0.65

BondAngle Coeffs

1 82.6961 82.6961 0.220151 0.220151 1.53 1.53
2 82.6961 82.6961 0 0 1.53 1.501
3 82.6961 82.6961 0 0 1.53 1.501
4 82.6961 82.6961 0 0 1.53 1.42
5 82.6961 138.265 0 0 1.53 1.38
6 82.6961 150 0.533407 0.321855 1.501 1.42
7 82.6961 82.6961 0 0 1.501 1.5
8 82.6961 150 0.533407 0.321855 1.501 1.42
9 82.6961 82.6961 0 0 1.501 1.4
10 82.6961 82.6961 0 0 1.506 1.5
11 82.6961 143.882 0.437026 0.290146 1.506 1.34
12 82.6961 143.882 0 0 1.506 1.5
13 82.6961 143.882 0 0 1.506 1.425
14 82.6961 82.6961 0 0 1.501 1.501
15 82.6961 150 0.533407 0.321855 1.501 1.42
16 82.6961 143.882 0 0 1.501 1.5
17 82.6961 150 0.533407 0.321855 1.501 1.42
18 82.6961 82.6961 0 0 1.501 1.4
19 82.6961 82.6961 0 0 1.42 1.4
20 138.265 138.265 0 0 1.38 1.3597
21 82.6961 82.6961 0 0 1.501 1.501
22 82.6961 82.6961 0 0 1.501 1.506
23 82.6961 82.6961 0 0 1.501 1.501
24 82.6961 138.265 0 0 1.501 1.38
25 150 150 0 0 1.42 1.42
26 150 82.6961 0 0 1.42 1.5
27 150 150 0 0 1.42 1.42
28 150 82.6961 0 0 1.42 1.4
29 150 138.265 0.570605 0.824155 1.42 1.3597
30 82.6961 82.6961 0 0 1.5 1.5
31 82.6961 143.882 0 0 1.5 1.34
32 82.6961 143.882 0 0 1.5 1.5
33 82.6961 143.882 0 0 1.5 1.425
34 150 150 0 0 1.42 1.42
35 150 143.882 0 0 1.42 1.5
36 150 150 0 0 1.42 1.42
37 150 82.6961 0 0 1.42 1.4
38 150 138.265 0.570605 0.824155 1.42 1.3597
39 82.6961 143.882 0 0 1.4 1.425
40 82.6961 82.6961 0 0 1.4 1.4
41 138.265 138.265 0.896826 0.896826 1.3597 1.3597
42 138.265 138.265 0.896826 0.896826 1.3597 1.3597
43 82.6961 82.6961 0 0 1.506 1.501
44 82.6961 150 0 0 1.5 1.42
45 143.882 143.882 0 0 1.34 1.34
46 143.882 143.882 0 0 1.34 1.5
47 143.882 143.882 0 0 1.34 1.425
48 143.882 150 0 0 1.5 1.42
49 143.882 138.265 0 0 1.5 1.3597
50 143.882 143.882 0 0 1.425 1.425
51 143.882 82.6961 0 0 1.425 1.4
52 143.882 199.57 0 0 1.425 1.204
53 82.6961 82.6961 0 0 1.501 1.501
54 82.6961 82.6961 0 0 1.501 1.42
55 82.6961 138.265 0 0 1.501 1.38
56 150 150 0 0 1.42 1.42
57 150 82.6961 0 0 1.42 1.4
58 150 138.265 0.570605 0.824155 1.42 1.3597
59 143.882 143.882 0 0 1.5 1.5
60 143.882 143.882 0 0 1.5 1.425
61 150 150 0 0 1.42 1.42
62 150 82.6961 0 0 1.42 1.4
63 150 98.2315 0.25822 0.3511 1.42 1.0982
64 150 138.265 0.570605 0.824155 1.42 1.3597
65 82.6961 82.6961 0 0 1.4 1.4
66 82.6961 199.57 0 0 1.4 1.204
67 138.265 138.265 0.896826 0.896826 1.3597 1.3597
68 143.882 143.882 0 0 1.425 1.425
69 82.6961 138.265 0 0 1.4 1.3597
70 98.2315 150 0 0 0.65 1.42
71 98.2315 98.2315 0 0 0.65 0.65

Dihedral Coeffs # class2xe

1 0 0 0.0514 0 -0.143 0
2 0 0 0 0 0.158 0
3 0 0 0 0 0.158 0
4 0 0 0 0 0.158 0
5 0 0 0 0 0.158 0
6 0 0 0 0 0.158 0
7 0 0 0 0 0.158 0
8 0 0 0 0 0.158 0
9 0 0 0 0 0.158 0
10 0 0 0 0 0.158 0
11 -0.2802 0 -0.0678 0 -0.0122 0
12 -0.2802 0 -0.0678 0 -0.0122 0
13 0 0 0 0 0 0
14 -0.2802 0 -0.0678 0 -0.0122 0
15 -0.2802 0 -0.0678 0 -0.0122 0
16 -0.2802 0 -0.0678 0 -0.0122 0
17 0 0 0 0 0 0
18 0 0 0 0 0 0
19 0 0 0 0 0 0
20 0 0 0 0 0.211 0
21 0 0 0 0 0.211 0
22 0 0 0 0 0.211 0
23 0 0 0 0 0.211 0
24 0 0 0 0 0 0
25 -0.2802 0 -0.0678 0 -0.0122 0
26 -0.2802 0 -0.0678 0 -0.0122 0
27 0 0 0 0 0 0
28 0 0 0 0 0 0
29 -0.2802 0 -0.0678 0 -0.0122 0
30 0 0 0 0 0 0
31 -0.2802 0 -0.0678 0 -0.0122 0
32 -0.2802 0 -0.0678 0 -0.0122 0
33 0 0 0 0 0 0
34 0 0 0 0 0 0
35 0 0 0 0 0 0
36 0 0 0 0 0 0
37 0 0 0 0 0 0
38 0 0 0 0 0.13 0
39 0 0 0 0 0.13 0
40 0 0 0 0 0.13 0
41 0 0 0 0 0 0
42 0 0 0 0 0 0
43 -0.2802 0 -0.0678 0 -0.0122 0
44 0 0 0 0 0 0
45 0 0 0 0 0 0
46 0 0 3 0 0 0
47 0 0 4.4072 0 0 0
48 0 0 0 0 0 0
49 0 0 3 0 0 0
50 0 0 3 0 0 0
51 0 0 3 0 0 0
52 0 0 0 0 0 0
53 0 0 0 0 0 0
54 0 0 3 0 0 0
55 0 0 4.4072 0 0 0
56 0 0 3 0 0 0
57 0 0 3 0 0 0
58 0 0 3 0 0 0
59 0 0 10.6923 0 0 0
60 0 0 3 0 0 0
61 0 0 3 0 0 0
62 0 0 10.6923 0 0 0
63 0 0 0.5 0 0 0
64 0 0 0.5 0 0 0
65 0 0 0.5 0 0 0
66 0 0 0.5 0 0 0
67 0 0 0.5 0 0 0
68 0 0 0.5 0 0 0
69 0 0 0.5 0 0 0
70 0 0 3 0 0 0
71 0 0 0 0 0 0
72 0 0 4.4072 0 0 0
73 0 0 3 0 0 0
74 0 0 3 0 0 0
75 0 0 4.4072 0 0 0
76 0 0 0 0 0 0
77 0 0 3 0 0 0
78 0 0 0 0 0 0
79 0 0 3 0 0 0
80 0 0 3 0 0 0
81 0 0 3 0 0 0
82 0 0 10.6923 0 0 0
83 0 0 10.6923 0 0 0
84 0 0 0 0 0 0
85 0 0 0 0 0 0
86 0 0 0 0 0 0
87 0 0 0 0 0 0
88 0 0 0 0 0 0
89 0 0 27.5402 0 0 0
90 0 0 27.5402 0 0 0
91 0 0 27.5402 0 0 0
92 0 0 0 0 0.211 0
93 0 0 0 0 0.211 0
94 0 0 0.5 0 0 0
95 0 0 0.5 0 0 0
96 0 0 0.5 0 0 0
97 0 0 0.5 0 0 0
98 0 0 3 0 0 0
99 0 0 3 0 0 0
100 0 0 3 0 0 0
101 0 0 3 0 0 0
102 0 0 3 0 0 0
103 0 0 3 0 0 0
104 0 0 3 0 0 0
105 0 0 3 0 0 0
106 0 0 3 0 0 0
107 0 0 3 0 0 0
108 0 0 3 0 0 0
109 0 0 3 0 0 0
110 0 0 0.5 0 0 0
111 0 0 0.5 0 0 0
112 0 0 0.5 0 0 0
113 0 0 0.5 0 0 0
114 0 0 0.5 0 0 0
115 0 0 0.5 0 0 0
116 0 0 0 0 0 0
117 0 0 0 0 0 0
118 0 0 0 0 0 0
119 0 0 0 0 0 0
120 0 0 0 0 0 0
121 0 0 0 0 0 0
122 0 0 0 0 0 0
123 0 0 0 0 0 0
124 0 0 0 0 0 0
125 0 0 0 0 0 0
126 0 0 0 0 0 0
127 0 0 0 0 0 0
128 -0.2802 0 -0.0678 0 -0.0122 0
129 0 0 0 0 0 0
130 0 0 0 0 0 0
131 0 0 0 0 0 0
132 0 0 0 0 0 0
133 0 0 4.4072 0 0 0
134 0 0 3 0 0 0
135 0 0 4.4072 0 0 0
136 0 0 3 0 0 0
137 0 0 0 0 0 0
138 0 0 3 0 0 0
139 0 0 3 0 0 0
140 0 0 10.6923 0 0 0
141 0 0 0.5 0 0 0
142 0 0 0.5 0 0 0
143 0 0 0.5 0 0 0
144 0 0 0.5 0 0 0
145 0 0 0.5 0 0 0
146 0 0 0.5 0 0 0
147 0 0 0.5 0 0 0
148 0 0 0.5 0 0 0
149 0 0 3 0 0 0
150 0 0 4.4072 0 0 0
151 0 0 0 0 0 0
152 0 0 3 0 0 0
153 0 0 3 0 0 0
154 0 0 3 0 0 0
155 0 0 0 0 0 0
156 0 0 0 0 0 0
157 0 0 3 0 0 0
158 0 0 4.4072 0 0 0
159 0 0 3 0 0 0
160 0 0 3 0 0 0
161 0 0 3 0 0 0
162 0 0 3 0 0 0
163 0 0 3.9661 0 0 0
164 0 0 3.9661 0 0 0
165 0 0 10.6923 0 0 0
166 0 0 3 0 0 0
167 0 0 10.6923 0 0 0
168 0 0 3 0 0 0
169 0 0 0 0 0 0
170 0 0 0 0 0 0
171 0 0 0 0 0 0
172 0 0 0 0 0 0
173 0 0 0 0 0 0
174 0 0 0 0 0 0
175 0 0 1.8 0 0 0
176 0 0 27.5402 0 0 0
177 0 0 27.5402 0 0 0
178 0 0 0 0 0 0
179 0 0 0 0 0 0
180 0 0 0 0 0 0
181 0 0 0 0 0 0
182 0 0 0 0 0 0
183 0 0 0 0 0 0
184 0 0 0 0 0 0
185 0 0 0 0 0 0
186 0 0 0 0 0 0
187 0 0 0 0 0 0
188 0 0 0 0 0 0
189 0 0 27.5402 0 0 0
190 0 0 1.8 0 0 0
191 0 0 1.8 0 0 0
192 0 0 27.5402 0 0 0
193 0 0 1.8 0 0 0

AngleAngleTorsion Coeffs

1 -22.045 112.67 112.67
2 0 112.67 108.4
3 0 108.4 108.4
4 0 108.4 108.4
5 0 112.67 108.4
6 0 108.4 108.4
7 0 108.4 109.5
8 0 108.4 110.5
9 0 112.67 110.5
10 0 108.4 110.5
11 0 108.4 120.05
12 0 111 120.05
13 0 108.4 120
14 0 111 120.05
15 0 108.4 120.05
16 0 111 120.05
17 0 109.5 120.05
18 0 111 120
19 0 111 120
20 0 120 109.5
21 0 120 109.5
22 0 120 109.5
23 0 120 109.5
24 0 108.4 120
25 0 108.4 120.05
26 0 111 120.05
27 0 108.4 120
28 0 111 120
29 0 111 120.05
30 0 109.5 120.05
31 0 111 120.05
32 0 108.4 120.05
33 0 111 120
34 0 111 120
35 0 108.4 120
36 0 109.5 180
37 0 109.5 180
38 0 110.5 108
39 0 110.5 108
40 0 110.5 108
41 0 109.5 120.05
42 0 111 120
43 0 111 120.05
44 0 110.5 120.05
45 0 110.5 120.05
46 0 120.05 120.05
47 -14.4097 120.05 118.9
48 0 0 0
49 0 120 120
50 0 120.05 120
51 0 118.9 120
52 0 0 0
53 0 0 0
54 0 120 118.9
55 -14.4097 120.05 118.9
56 0 120 120
57 0 118.9 120
58 0 118.9 120
59 0 118.9 104.17
60 0 120 104.17
61 0 120.05 104.17
62 0 118.9 104.17
63 0 120 120
64 0 120 120
65 0 120 120
66 0 120 120
67 0 120 120
68 0 120 120
69 0 120 120
70 0 120.05 120.05
71 0 0 0
72 -14.4097 120.05 118.9
73 0 118.9 120
74 0 120.05 120
75 -14.4097 120.05 118.9
76 0 0 0
77 0 120 118.9
78 0 0 0
79 0 118.9 120
80 0 118.9 120
81 0 120.05 104.17
82 0 118.9 104.17
83 0 118.9 104.17
84 0 120 180
85 0 120 180
86 0 120 180
87 0 120 180
88 0 120 180
89 0 104.17 103.43
90 0 104.17 103.43
91 0 104.17 103.43
92 0 126.26 109.5
93 0 120 109.5
94 0 120 120
95 0 120 120
96 0 120 120
97 0 120 120
98 0 126.26 120
99 0 120 120
100 0 117.6 117.6
101 0 126.26 117.6
102 0 120 117.6
103 0 120 120
104 0 117.6 120
105 0 120 120
106 0 117.6 120
107 0 120 120
108 0 120 120
109 0 120 120
110 0 120 120
111 0 120 120
112 0 120 120
113 0 120 120
114 0 120 120
115 0 120 120
116 0 120 180
117 0 120 180
118 0 120 180
119 0 120 180
120 0 120 180
121 0 120 180
122 0 120 180
123 0 120 180
124 0 111 120
125 0 109.5 120.05
126 0 111 120
127 0 111 120
128 0 111 120.05
129 0 109.5 120
130 0 109.5 120.05
131 0 110.5 120
132 0 110.5 120.05
133 -14.4097 120.05 118.9
134 0 120.05 120
135 -14.4097 120.05 118.9
136 0 120 118.9
137 0 0 0
138 0 118.9 120
139 0 120 104.17
140 0 118.9 104.17
141 0 120 120
142 0 120 120
143 0 120 120
144 0 120 120
145 0 120 120
146 0 120 120
147 0 120 120
148 0 120 120
149 0 120.05 120.05
150 -14.4097 120.05 118.9
151 0 0 0
152 0 120 120
153 0 120.05 120
154 0 118.9 120
155 0 0 0
156 0 0 0
157 0 120 118.9
158 -14.4097 120.05 118.9
159 0 118.9 120
160 0 120.05 120
161 0 120 120
162 0 118.9 120
163 -4.8141 118.9 117.94
164 -4.8141 118.9 117.94
165 0 118.9 104.17
166 0 104.17 104.17
167 0 118.9 104.17
168 0 120.05 104.17
169 0 120 180
170 0 120 180
171 0 120 180
172 0 120 180
173 0 120 180
174 0 120 180
175 0 120 103.43
176 0 104.17 103.43
177 0 104.17 103.43
178 0 120 180
179 0 120 180
180 0 120 180
181 0 120 180
182 0 120 180
183 0 120 180
184 0 120 180
185 0 120 180
186 0 120 180
187 0 180 180
188 0 180 180
189 0 104.17 103.43
190 0 104.17 108
191 0 104.17 108
192 0 104.17 103.43
193 0 120 103.43

EndBondTorsion Coeffs

1 2 2 -0.0732 0 0 -0.0732 0 0 1.53 1.53
2 2 2 0 0 0 0 0 0 1.53 1.501
3 2 2 0 0 0 0 0 0 1.501 1.501
4 2 2 0 0 0 0 0 0 1.501 1.501
5 2 2 0 0 0 0 0 0 1.53 1.501
6 2 2 0 0 0 0 0 0 1.501 1.501
7 2 1.5 0 0 0 0 0 0 1.501 1.42
8 2 1.3 0 0 0 0 0 0 1.501 1.38
9 2 1.3 0 0 0 0 0 0 1.53 1.38
10 2 1.3 0 0 0 0 0 0 1.501 1.38
11 2 1.4 0 0 0 0 0 0 1.53 1.42
12 2 1.4 0 0 0 0 0 0 1.501 1.42
13 2 1.6 0 0 0 0 0 0 1.53 1.5
14 2 1.4 0 0 0 0 0 0 1.501 1.42
15 2 1.4 0 0 0 0 0 0 1.53 1.42
16 2 1.4 0 0 0 0 0 0 1.501 1.42
17 1.9 1.4 0 0 0 0 0 0 1.506 1.42
18 2 1.6 0 0 0 0 0 0 1.501 1.4
19 2 1.6 0 0 0 0 0 0 1.501 1.4
20 1.2 2 0 0 0 0 0 0 1.5 1.501
21 1.2 2 0 0 0 0 0 0 1.5 1.501
22 1.2 2 0 0 0 0 0 0 1.425 1.501
23 1.2 2 0 0 0 0 0 0 1.425 1.501
24 2 2 0 0 0 0 0 0 1.53 1.501
25 2 1.4 0 0 0 0 0 0 1.53 1.42
26 2 1.4 0 0 0 0 0 0 1.501 1.42
27 2 1.2 0 0 0 0 0 0 1.53 1.5
28 2 1.2 0 0 0 0 0 0 1.501 1.5
29 2 1.4 0 0 0 0 0 0 1.501 1.42
30 1.9 1.4 0 0 0 0 0 0 1.506 1.42
31 2 1.4 0 0 0 0 0 0 1.501 1.42
32 2 1.4 0 0 0 0 0 0 1.53 1.42
33 2 1.6 0 0 0 0 0 0 1.501 1.4
34 2 1.6 0 0 0 0 0 0 1.501 1.4
35 2 1.6 0 0 0 0 0 0 1.53 1.4
36 2 1.6 0 0 0 0 0 0 1.501 1.4
37 2 1.6 0 0 0 0 0 0 1.53 1.4
38 2 2 0 0 0 0 0 0 1.501 1.3597
39 2 2 0 0 0 0 0 0 1.53 1.3597
40 2 2 0 0 0 0 0 0 1.501 1.3597
41 1.9 1.4 0 0 0 0 0 0 1.506 1.42
42 2 1.6 0 0 0 0 0 0 1.501 1.5
43 2 1.4 0 0 0 0 0 0 1.501 1.42
44 1.3 1.4 0 0 0 0 0 0 1.38 1.42
45 1.3 1.4 0 0 0 0 0 0 1.38 1.42
46 2 2 0 0 0 0 0 0 1.501 1.501
47 2 1.4 0 0.2421 0 0 -0.6918 0 1.501 1.42
48 1.4 1.4 0 0 0 0 0 0 1.42 1.42
49 1.6 1.6 0 0 0 0 0 0 1.5 1.5
50 2 1.6 0 0 0 0 0 0 1.501 1.5
51 1.4 1.6 0 0 0 0 0 0 1.42 1.5
52 1.4 1.4 0 0 0 0 0 0 1.42 1.42
53 1.4 1.4 0 0 0 0 0 0 1.42 1.42
54 1.6 1.4 0 0 0 0 0 0 1.5 1.42
55 2 1.4 0 0.2421 0 0 -0.6918 0 1.501 1.42
56 1.6 1.6 0 0 0 0 0 0 1.5 1.4
57 1.4 1.6 0 0 0 0 0 0 1.42 1.4
58 1.4 1.6 0 0 0 0 0 0 1.42 1.4
59 1.4 2 0 -30.5414 0 0 -19.3285 0 1.42 1.3597
60 1.6 2 0 0 0 0 0 0 1.5 1.3597
61 2 2 0 0 0 0 0 0 1.501 1.3597
62 1.4 2 0 -30.5414 0 0 -19.3285 0 1.42 1.3597
63 1.6 1.4 0 0 0 0 0 0 1.5 1.42
64 2.1 2 0 0 0 0 0 0 1.34 1.501
65 2.1 1.4 0 0 0 0 0 0 1.34 1.42
66 1.2 1.4 0 0 0 0 0 0 1.5 1.42
67 1.2 1.4 0 0 0 0 0 0 1.5 1.42
68 1.2 1.4 0 0 0 0 0 0 1.425 1.42
69 1.2 1.4 0 0 0 0 0 0 1.425 1.42
70 2 2 0 0 0 0 0 0 1.501 1.501
71 1.4 1.4 0 0 0 0 0 0 1.42 1.42
72 2 1.4 0 0.2421 0 0 -0.6918 0 1.501 1.42
73 1.4 1.2 0 0 0 0 0 0 1.42 1.5
74 2 1.2 0 0 0 0 0 0 1.501 1.5
75 2 1.4 0 0.2421 0 0 -0.6918 0 1.501 1.42
76 1.4 1.4 0 0 0 0 0 0 1.42 1.42
77 1.6 1.4 0 0 0 0 0 0 1.5 1.42
78 1.4 1.4 0 0 0 0 0 0 1.42 1.42
79 1.4 1.6 0 0 0 0 0 0 1.42 1.4
80 1.4 1.6 0 0 0 0 0 0 1.42 1.4
81 2 2 0 0 0 0 0 0 1.501 1.3597
82 1.4 2 0 -30.5414 0 0 -19.3285 0 1.42 1.3597
83 1.4 2 0 -30.5414 0 0 -19.3285 0 1.42 1.3597
84 2 1.2 0 0 0 0 0 0 1.501 1.425
85 1.4 1.2 0 0 0 0 0 0 1.42 1.425
86 2 1.6 0 0 0 0 0 0 1.501 1.4
87 1.4 1.6 0 0 0 0 0 0 1.42 1.4
88 1.4 1.6 0 0 0 0 0 0 1.42 1.4
89 1.4 2 0 -10.4096 0 0 -22.4567 0 1.42 1.3597
90 1.4 2 0 -10.4096 0 0 -22.4567 0 1.42 1.3597
91 1.4 2 0 -10.4096 0 0 -22.4567 0 1.42 1.3597
92 2.1 2 0 0 0 0 0 0 1.34 1.501
93 1.6 2 0 0 0 0 0 0 1.5 1.501
94 1.9 1.4 0 0 0 0 0 0 1.506 1.42
95 1.6 1.4 0 0 0 0 0 0 1.5 1.42
96 1.9 1.4 0 0 0 0 0 0 1.506 1.42
97 2.1 1.4 0 0 0 0 0 0 1.34 1.42
98 1.9 1.6 0 0 0 0 0 0 1.506 1.5
99 1.6 1.6 0 0 0 0 0 0 1.5 1.5
100 2.1 2.1 0 0 0 0 0 0 1.34 1.34
101 1.9 2.1 0 0 0 0 0 0 1.506 1.34
102 1.6 2.1 0 0 0 0 0 0 1.5 1.34
103 1.2 1.2 0 0 0 0 0 0 1.5 1.5
104 2.1 1.2 0 0 0 0 0 0 1.34 1.5
105 1.6 1.2 0 0 0 0 0 0 1.5 1.5
106 2.1 1.2 0 0 0 0 0 0 1.34 1.425
107 1.6 1.2 0 0 0 0 0 0 1.5 1.425
108 1.2 1.2 0 0 0 0 0 0 1.425 1.425
109 1.2 1.2 0 0 0 0 0 0 1.5 1.425
110 1.6 1.4 0 0 0 0 0 0 1.5 1.42
111 1.6 1.4 0 0 0 0 0 0 1.5 1.42
112 2.1 1.4 0 0 0 0 0 0 1.34 1.42
113 1.9 1.4 0 0 0 0 0 0 1.506 1.42
114 1.2 1.4 0 0 0 0 0 0 1.5 1.42
115 1.2 2 0 0 0 0 0 0 1.5 1.3597
116 1.6 1.2 0 0 0 0 0 0 1.5 1.425
117 2.1 1.2 0 0 0 0 0 0 1.34 1.425
118 2.1 1.6 0 0 0 0 0 0 1.34 1.4
119 1.2 1.6 0 0 0 0 0 0 1.5 1.4
120 1.9 1.6 0 0 0 0 0 0 1.506 1.4
121 1.6 1.6 0 0 0 0 0 0 1.5 1.4
122 1.2 1.6 0 0 0 0 0 0 1.5 1.204
123 2.1 1.6 0 0 0 0 0 0 1.34 1.204
124 2 2 0 0 0 0 0 0 1.501 1.501
125 1.9 1.4 0 0 0 0 0 0 1.506 1.42
126 2 1.2 0 0 0 0 0 0 1.501 1.5
127 2 2 0 0 0 0 0 0 1.501 1.501
128 2 1.4 0 0 0 0 0 0 1.501 1.42
129 1.5 2 0 0 0 0 0 0 1.42 1.501
130 1.5 1.4 0 0 0 0 0 0 1.42 1.42
131 1.3 1.2 0 0 0 0 0 0 1.38 1.5
132 1.3 1.4 0 0 0 0 0 0 1.38 1.42
133 2 1.4 0 0.2421 0 0 -0.6918 0 1.501 1.42
134 2 1.6 0 0 0 0 0 0 1.501 1.5
135 2 1.4 0 0.2421 0 0 -0.6918 0 1.501 1.42
136 1.2 1.4 0 0 0 0 0 0 1.5 1.42
137 1.4 1.4 0 0 0 0 0 0 1.42 1.42
138 1.4 1.6 0 0 0 0 0 0 1.42 1.4
139 1.2 2 0 0 0 0 0 0 1.5 1.3597
140 1.4 2 0 -30.5414 0 0 -19.3285 0 1.42 1.3597
141 1.6 2 0 0 0 0 0 0 1.5 1.501
142 2.1 1.4 0 0 0 0 0 0 1.34 1.42
143 2.1 2 0 0 0 0 0 0 1.34 1.501
144 1.2 2 0 0 0 0 0 0 1.5 1.501
145 1.2 1.4 0 0 0 0 0 0 1.5 1.42
146 1.2 1.4 0 0 0 0 0 0 1.425 1.42
147 1.2 2 0 0 0 0 0 0 1.425 1.501
148 1.2 1.4 0 0 0 0 0 0 1.425 1.42
149 2 2 0 0 0 0 0 0 1.501 1.501
150 2 1.4 0 0.2421 0 0 -0.6918 0 1.501 1.42
151 1.4 1.4 0 0 0 0 0 0 1.42 1.42
152 1.2 1.2 0 0 0 0 0 0 1.5 1.5
153 2 1.2 0 0 0 0 0 0 1.501 1.5
154 1.4 1.2 0 0 0 0 0 0 1.42 1.5
155 1.4 1.4 0 0 0 0 0 0 1.42 1.42
156 1.4 1.4 0 0 0 0 0 0 1.42 1.42
157 1.2 1.4 0 0 0 0 0 0 1.5 1.42
158 2 1.4 0 0.2421 0 0 -0.6918 0 1.501 1.42
159 1.4 1.6 0 0 0 0 0 0 1.42 1.4
160 2 1.6 0 0 0 0 0 0 1.501 1.4
161 1.2 1.6 0 0 0 0 0 0 1.5 1.4
162 1.4 1.6 0 0 0 0 0 0 1.42 1.4
163 1.4 2.1 0 -6.8958 0 0 -0.4669 0 1.42 1.0982
164 1.4 2.1 0 -6.8958 0 0 -0.4669 0 1.42 1.0982
165 1.4 2 0 -30.5414 0 0 -19.3285 0 1.42 1.3597
166 2 2 0 0 0 0 0 0 1.3597 1.3597
167 1.4 2 0 -30.5414 0 0 -19.3285 0 1.42 1.3597
168 2 2 0 0 0 0 0 0 1.501 1.3597
169 2 1.6 0 0 0 0 0 0 1.501 1.4
170 2 1.2 0 0 0 0 0 0 1.501 1.425
171 1.4 1.6 0 0 0 0 0 0 1.42 1.4
172 2 1.6 0 0 0 0 0 0 1.501 1.4
173 1.4 1.6 0 0 0 0 0 0 1.42 1.4
174 1.4 1.6 0 0 0 0 0 0 1.42 1.204
175 1.2 2 0 0 0 0 0 0 1.5 1.3597
176 1.4 2 0 -10.4096 0 0 -22.4567 0 1.42 1.3597
177 1.4 2 0 -10.4096 0 0 -22.4567 0 1.42 1.3597
178 1.4 1.2 0 0 0 0 0 0 1.42 1.425
179 2.1 1.6 0 0 0 0 0 0 1.34 1.4
180 1.2 1.6 0 0 0 0 0 0 1.5 1.4
181 1.2 1.2 0 0 0 0 0 0 1.5 1.425
182 1.2 1.6 0 0 0 0 0 0 1.425 1.4
183 1.4 1.5 0 0 0 0 0 0 1.42 1.42
184 1.4 1.6 0 0 0 0 0 0 1.42 1.4
185 1.4 1.2 0 0 0 0 0 0 1.42 1.425
186 2 1.6 0 0 0 0 0 0 1.3597 1.4
187 1.6 1.6 0 0 0 0 0 0 1.4 1.4
188 1.2 1.6 0 0 0 0 0 0 1.425 1.4
189 1.4 2 0 -10.4096 0 0 -22.4567 0 1.42 1.3597
190 1.4 1.3 0 0 0 0 0 0 1.42 1.38
191 1.4 1.3 0 0 0 0 0 0 1.42 1.38
192 1.4 2 0 -10.4096 0 0 -22.4567 0 1.42 1.3597
193 1.6 2 0 0 0 0 0 0 1.4 1.3597

MiddleBondTorsion Coeffs

1 2 -17.787 -7.1877 0 1.53
2 2 0 0 0 1.53
3 2 0 0 0 1.53
4 2 0 0 0 1.53
5 2 0 0 0 1.53
6 2 0 0 0 1.53
7 2 0 0 0 1.53
8 2 0 0 0 1.53
9 2 0 0 0 1.53
10 2 0 0 0 1.53
11 2 0 0 0 1.501
12 2 0 0 0 1.501
13 2 0 0 0 1.501
14 2 0 0 0 1.501
15 2 0 0 0 1.501
16 2 0 0 0 1.501
17 2 0 0 0 1.501
18 2 0 0 0 1.501
19 2 0 0 0 1.501
20 1.9 0 0 0 1.506
21 1.9 0 0 0 1.506
22 1.9 0 0 0 1.506
23 1.9 0 0 0 1.506
24 2 0 0 0 1.501
25 2 0 0 0 1.501
26 2 0 0 0 1.501
27 2 0 0 0 1.501
28 2 0 0 0 1.501
29 2 0 0 0 1.501
30 2 0 0 0 1.501
31 2 0 0 0 1.501
32 2 0 0 0 1.501
33 2 0 0 0 1.501
34 2 0 0 0 1.501
35 2 0 0 0 1.501
36 1.5 0 0 0 1.42
37 1.5 0 0 0 1.42
38 1.3 0 0 0 1.38
39 1.3 0 0 0 1.38
40 1.3 0 0 0 1.38
41 2 0 0 0 1.501
42 2 0 0 0 1.501
43 2 0 0 0 1.501
44 2 0 0 0 1.501
45 2 0 0 0 1.501
46 1.4 0 0 0 1.42
47 1.4 0 9.1792 0 1.42
48 1.4 0 0 0 1.42
49 1.4 0 0 0 1.42
50 1.4 0 0 0 1.42
51 1.4 0 0 0 1.42
52 1.4 0 0 0 1.42
53 1.4 0 0 0 1.42
54 1.4 0 0 0 1.42
55 1.4 0 9.1792 0 1.42
56 1.4 0 0 0 1.42
57 1.4 0 0 0 1.42
58 1.4 0 0 0 1.42
59 1.4 0 26.4272 0 1.42
60 1.4 0 0 0 1.42
61 1.4 0 0 0 1.42
62 1.4 0 26.4272 0 1.42
63 1.6 0 0 0 1.5
64 1.6 0 0 0 1.5
65 1.6 0 0 0 1.5
66 1.6 0 0 0 1.5
67 1.6 0 0 0 1.5
68 1.6 0 0 0 1.5
69 1.6 0 0 0 1.5
70 1.4 0 0 0 1.42
71 1.4 0 0 0 1.42
72 1.4 0 9.1792 0 1.42
73 1.4 0 0 0 1.42
74 1.4 0 0 0 1.42
75 1.4 0 9.1792 0 1.42
76 1.4 0 0 0 1.42
77 1.4 0 0 0 1.42
78 1.4 0 0 0 1.42
79 1.4 0 0 0 1.42
80 1.4 0 0 0 1.42
81 1.4 0 0 0 1.42
82 1.4 0 26.4272 0 1.42
83 1.4 0 26.4272 0 1.42
84 1.6 0 0 0 1.4
85 1.6 0 0 0 1.4
86 1.6 0 0 0 1.4
87 1.6 0 0 0 1.4
88 1.6 0 0 0 1.4
89 2 0 42.2966 0 1.3597
90 2 0 42.2966 0 1.3597
91 2 0 42.2966 0 1.3597
92 1.9 0 0 0 1.506
93 1.9 0 0 0 1.506
94 1.6 0 0 0 1.5
95 1.6 0 0 0 1.5
96 1.6 0 0 0 1.5
97 1.6 0 0 0 1.5
98 2.1 0 0 0 1.34
99 2.1 0 0 0 1.34
100 2.1 0 0 0 1.34
101 2.1 0 0 0 1.34
102 2.1 0 0 0 1.34
103 2.1 0 0 0 1.34
104 2.1 0 0 0 1.34
105 2.1 0 0 0 1.34
106 2.1 0 0 0 1.34
107 2.1 0 0 0 1.34
108 2.1 0 0 0 1.34
109 2.1 0 0 0 1.34
110 1.2 0 0 0 1.5
111 1.2 0 0 0 1.5
112 1.2 0 0 0 1.5
113 1.2 0 0 0 1.5
114 1.2 0 0 0 1.5
115 1.2 0 0 0 1.5
116 1.2 0 0 0 1.425
117 1.2 0 0 0 1.425
118 1.2 0 0 0 1.425
119 1.2 0 0 0 1.425
120 1.2 0 0 0 1.425
121 1.2 0 0 0 1.425
122 1.2 0 0 0 1.425
123 1.2 0 0 0 1.425
124 2 0 0 0 1.501
125 2 0 0 0 1.501
126 2 0 0 0 1.501
127 2 0 0 0 1.501
128 2 0 0 0 1.501
129 2 0 0 0 1.501
130 2 0 0 0 1.501
131 2 0 0 0 1.501
132 2 0 0 0 1.501
133 1.4 0 9.1792 0 1.42
134 1.4 0 0 0 1.42
135 1.4 0 9.1792 0 1.42
136 1.4 0 0 0 1.42
137 1.4 0 0 0 1.42
138 1.4 0 0 0 1.42
139 1.4 0 0 0 1.42
140 1.4 0 26.4272 0 1.42
141 1.2 0 0 0 1.5
142 1.2 0 0 0 1.5
143 1.2 0 0 0 1.5
144 1.2 0 0 0 1.5
145 1.2 0 0 0 1.5
146 1.2 0 0 0 1.5
147 1.2 0 0 0 1.5
148 1.2 0 0 0 1.5
149 1.4 0 0 0 1.42
150 1.4 0 9.1792 0 1.42
151 1.4 0 0 0 1.42
152 1.4 0 0 0 1.42
153 1.4 0 0 0 1.42
154 1.4 0 0 0 1.42
155 1.4 0 0 0 1.42
156 1.4 0 0 0 1.42
157 1.4 0 0 0 1.42
158 1.4 0 9.1792 0 1.42
159 1.4 0 0 0 1.42
160 1.4 0 0 0 1.42
161 1.4 0 0 0 1.42
162 1.4 0 0 0 1.42
163 1.4 0 -1.1521 0 1.42
164 1.4 0 -1.1521 0 1.42
165 1.4 0 26.4272 0 1.42
166 1.4 0 0 0 1.42
167 1.4 0 26.4272 0 1.42
168 1.4 0 0 0 1.42
169 1.6 0 0 0 1.4
170 1.6 0 0 0 1.4
171 1.6 0 0 0 1.4
172 1.6 0 0 0 1.4
173 1.6 0 0 0 1.4
174 1.6 0 0 0 1.4
175 2 0 0 0 1.3597
176 2 0 42.2966 0 1.3597
177 2 0 42.2966 0 1.3597
178 1.6 0 0 0 1.4
179 1.2 0 0 0 1.425
180 1.2 0 0 0 1.425
181 1.2 0 0 0 1.425
182 1.2 0 0 0 1.425
183 1.6 0 0 0 1.4
184 1.6 0 0 0 1.4
185 1.6 0 0 0 1.4
186 1.6 0 0 0 1.4
187 1.6 0 0 0 1.204
188 1.6 0 0 0 1.204
189 2 0 42.2966 0 1.3597
190 2 0 0 0 1.3597
191 2 0 0 0 1.3597
192 2 0 42.2966 0 1.3597
193 2 0 0 0 1.3597

BondBond13 Coeffs

1 82.6961 0 1.53 1.53
2 82.6961 0 1.53 1.501
3 82.6961 0 1.501 1.501
4 82.6961 0 1.501 1.501
5 82.6961 0 1.53 1.501
6 82.6961 0 1.501 1.501
7 82.6961 0 1.501 1.42
8 110.481 0 1.501 1.38
9 110.481 0 1.53 1.38
10 110.481 0 1.501 1.38
11 116.348 0 1.53 1.42
12 116.348 0 1.501 1.42
13 82.6961 0 1.53 1.5
14 116.348 0 1.501 1.42
15 116.348 0 1.53 1.42
16 116.348 0 1.501 1.42
17 116.348 0 1.506 1.42
18 82.6961 0 1.501 1.4
19 82.6961 0 1.501 1.4
20 113.289 0 1.5 1.501
21 113.289 0 1.5 1.501
22 113.289 0 1.425 1.501
23 113.289 0 1.425 1.501
24 82.6961 0 1.53 1.501
25 116.348 0 1.53 1.42
26 116.348 0 1.501 1.42
27 113.289 0 1.53 1.5
28 113.289 0 1.501 1.5
29 116.348 0 1.501 1.42
30 116.348 0 1.506 1.42
31 116.348 0 1.501 1.42
32 116.348 0 1.53 1.42
33 82.6961 0 1.501 1.4
34 82.6961 0 1.501 1.4
35 82.6961 0 1.53 1.4