LAMMPS data file via write_data, version 29 Aug 2024, timestep = 1000000, units = real

4461 atoms
8 atom types
5444 bonds
19 bond types
14785 angles
68 angle types
12187 dihedrals
184 dihedral types
2138 impropers
68 improper types

-12.51935838985602 12.51935838985602 xlo xhi
-13.697238097649464 13.697238097649464 ylo yhi
-13.34226152862689 13.34226152862689 zlo zhi

Atom Type Labels

1 c
2 c5
3 c=2
4 cp
5 ct
6 op
7 cg1
8 cge

Bond Type Labels

1 c-c
2 c-c5
3 c-c=2
4 c-cp
5 c-ct
6 c-op
7 c5-c5
8 c=2-c5
9 c5-cp
10 c5-ct
11 c5-op
12 c=2-c=2
13 c=2-cp
14 c=2-ct
15 cp-cp
16 cp-ct
17 cp-op
18 ct-ct
19 cg1-cge

Angle Type Labels

1 c-c-c
2 c-c-c5
3 c-c-cp
4 c-c-ct
5 c-c-op
6 c-c5-c5
7 c-c5-c=2
8 c-c5-cp
9 c-c5-ct
10 c-c=2-c=2
11 c-c=2-cp
12 c-c=2-ct
13 c-cp-c
14 c-cp-c5
15 c-cp-c=2
16 c-cp-cp
17 c-cp-ct
18 c-ct-ct
19 c-op-c5
20 c5-c-c5
21 c5-c-c=2
22 c5-c-cp
23 c5-c-op
24 c5-c5-c5
25 c5-c5-c=2
26 c5-c5-cp
27 c5-c5-ct
28 c5-c5-op
29 c5-c=2-c5
30 c5-c=2-c=2
31 c5-c=2-cp
32 c5-c=2-ct
33 c5-cp-c5
34 c5-cp-c=2
35 c5-cp-cp
36 c5-cp-ct
37 c5-ct-c=2
38 c5-ct-cp
39 c5-ct-ct
40 c5-op-c5
41 c5-op-cp
42 c=2-c-cp
43 c=2-c5-cp
44 c=2-c=2-c=2
45 c=2-c=2-cp
46 c=2-c=2-ct
47 c=2-cp-cp
48 c=2-ct-c=2
49 c=2-ct-cp
50 c=2-ct-ct
51 cp-c-cp
52 cp-c-ct
53 cp-c-op
54 cp-c5-cp
55 cp-c5-ct
56 cp-c5-op
57 cp-c=2-cp
58 cp-c=2-ct
59 cp-cp-cp
60 cp-cp-ct
61 cp-cp-op
62 cp-ct-cp
63 cp-ct-ct
64 cp-op-cp
65 ct-c5-op
66 ct-ct-ct
67 cge-cg1-cg1
68 cge-cg1-cge

Dihedral Type Labels

1 c-c-c-c
2 c-c-c-c5
3 c5-c-c-c5
4 cp-c-c-cp
5 c-c-c-cp
6 c5-c-c-cp
7 c5-c-c-ct
8 cp-c-c-ct
9 cp-c-c-op
10 c-c-c5-c5
11 c5-c-c5-c5
12 c-c-c5-c=2
13 cp-c-c5-cp
14 c-c-c5-cp
15 c5-c-c5-cp
16 c=2-c-c5-cp
17 c=2-c-c5-ct
18 c5-c-c5-ct
19 cp-c=2-c-c5
20 ct-c=2-c-cp
21 c-c-cp-c
22 c-c-cp-c5
23 c5-c-cp-c5
24 c-c-cp-c=2
25 c5-c-cp-c=2
26 c5-c-cp-cp
27 c=2-c-cp-cp
28 cp-c-cp-cp
29 c-c-cp-cp
30 c5-c-cp-ct
31 cp-c-cp-ct
32 c-c-cp-ct
33 c-c-ct-ct
34 cp-c-ct-ct
35 c-c-op-c5
36 c5-c-op-c5
37 c=2-c-c5-c5
38 cp-c-c5-c=2
39 cp-c-c5-c5
40 op-c-c5-c5
41 c-c5-c5-c
42 c-c5-c5-c5
43 c5-c5-c5-c5
44 c=2-c5-c5-c=2
45 c-c5-c5-c=2
46 c5-c5-c5-c=2
47 cp-c5-c5-cp
48 c5-c5-c5-cp
49 c=2-c5-c5-cp
50 c-c5-c5-cp
51 c-c5-c5-ct
52 c5-c5-c5-ct
53 cp-c5-c5-ct
54 cp-c5-c5-op
55 c=2-c5-c5-op
56 c-c5-c5-op
57 c5-c5-c5-op
58 op-c5-c5-op
59 c5-c=2-c5-c5
60 c5-c=2-c5-c
61 c=2-c=2-c5-c
62 c=2-c=2-c5-c5
63 cp-c=2-c5-c
64 cp-c=2-c5-c5
65 cp-c=2-c5-cp
66 ct-c=2-c5-cp
67 ct-c=2-c5-c5
68 c-c5-cp-c
69 c-c5-cp-c5
70 c5-c5-cp-c5
71 c5-c5-cp-c=2
72 c-c5-cp-c=2
73 c-c5-cp-cp
74 c5-c5-cp-cp
75 cp-c5-cp-cp
76 c=2-c5-cp-cp
77 cp-c5-cp-ct
78 c5-c5-cp-ct
79 c5-c5-ct-cp
80 cp-c5-ct-cp
81 c-c5-ct-ct
82 c5-c5-ct-ct
83 cp-c5-ct-ct
84 c5-c5-op-c5
85 c5-c5-op-cp
86 cp-c5-op-cp
87 c=2-c=2-c-cp
88 c5-c=2-c5-cp
89 c=2-c=2-c5-cp
90 c5-c=2-c=2-c5
91 c=2-c=2-c=2-c=2
92 c-c=2-c=2-c=2
93 c5-c=2-c=2-c=2
94 cp-c=2-c=2-cp
95 c=2-c=2-c=2-cp
96 c-c=2-c=2-cp
97 c5-c=2-c=2-cp
98 c=2-c=2-c=2-ct
99 c5-c=2-c=2-ct
100 ct-c=2-c=2-ct
101 cp-c=2-c=2-ct
102 c5-c=2-cp-c5
103 c5-c=2-cp-cp
104 c=2-c=2-cp-cp
105 c-c=2-cp-cp
106 cp-c=2-cp-cp
107 c5-c=2-ct-c=2
108 c=2-c=2-ct-c=2
109 c=2-c=2-ct-cp
110 cp-c=2-ct-cp
111 c5-c=2-ct-cp
112 cp-c=2-ct-ct
113 c5-c=2-ct-ct
114 c=2-c=2-ct-ct
115 c-c=2-ct-ct
116 c5-c-cp-c
117 c=2-c-cp-c5
118 cp-c-cp-c=2
119 cp-c-cp-c
120 cp-c-cp-c5
121 ct-c-cp-cp
122 op-c-cp-cp
123 c-cp-c5-c5
124 c-cp-c5-c=2
125 c-cp-c5-cp
126 c=2-cp-c5-cp
127 c5-cp-c5-cp
128 cp-cp-c5-ct
129 c=2-cp-c5-op
130 cp-cp-c5-op
131 c-cp-c5-op
132 c5-c=2-cp-c
133 c=2-c=2-cp-c5
134 c=2-c=2-cp-c
135 cp-c=2-cp-c
136 cp-c=2-cp-c5
137 ct-c=2-cp-c5
138 ct-c=2-cp-c
139 ct-c=2-cp-cp
140 c-cp-cp-c
141 c-cp-cp-c5
142 c5-cp-cp-c5
143 c=2-cp-cp-c=2
144 c-cp-cp-c=2
145 c5-cp-cp-c=2
146 c5-cp-cp-cp
147 cp-cp-cp-cp
148 c=2-cp-cp-cp
149 c-cp-cp-cp
150 cp-cp-cp-ct
151 c-cp-cp-ct
152 c=2-cp-cp-ct
153 c5-cp-cp-ct
154 c5-cp-cp-op
155 cp-cp-cp-op
156 c-cp-cp-op
157 c=2-cp-cp-op
158 c5-cp-ct-c=2
159 c-cp-ct-c=2
160 c-cp-ct-cp
161 cp-cp-ct-cp
162 cp-cp-ct-ct
163 c-cp-ct-ct
164 cp-cp-op-cp
165 cp-c5-ct-c=2
166 op-c5-ct-cp
167 op-c5-ct-c=2
168 c=2-c=2-ct-c5
169 cp-c=2-ct-c=2
170 cp-cp-ct-c5
171 cp-cp-ct-c=2
172 c5-ct-ct-c=2
173 c=2-ct-ct-c=2
174 c5-ct-ct-cp
175 cp-ct-ct-cp
176 c=2-ct-ct-cp
177 c-ct-ct-cp
178 c=2-ct-ct-ct
179 cp-c-op-c5
180 c5-c5-op-c
181 cp-c5-op-c
182 cp-c5-op-c5
183 ct-c5-op-c5
184 cp-cp-op-c5

Improper Type Labels

1 c-c5-c5-c5-nb==3
2 c-c5-c5-c=2-nb==3
3 c-c5-c5-cp-nb==3
4 c-c5-c5-ct-nb==3
5 c-c5-c=2-cp-nb==3
6 c-c5-cp-cp-nb==3
7 c-c=2-c=2-ct-nb==3
8 c-c=2-cp-cp-nb==3
9 c-cp-c-c5-nb==3
10 c-cp-c-cp-nb==3
11 c-cp-c5-c5-nb==3
12 c-cp-c5-cp-nb==3
13 c-cp-c=2-cp-nb==3
14 c-cp-cp-cp-nb==3
15 c-cp-cp-ct-nb==3
16 c5-c5-c5-c5-nb==3
17 c5-c5-c5-c=2-nb==3
18 c5-c5-c5-cp-nb==3
19 c5-c5-c5-ct-nb==3
20 c5-c5-c5-op-nb==3
21 c5-c5-c=2-cp-nb==3
22 c5-c5-cp-cp-nb==3
23 c5-c5-cp-ct-nb==3
24 c5-c5-cp-op-nb==3
25 c5-c=2-c5-cp-nb==3
26 c5-c=2-c=2-c=2-nb==3
27 c5-c=2-c=2-cp-nb==3
28 c5-c=2-c=2-ct-nb==3
29 c5-c=2-cp-cp-nb==3
30 c5-c=2-cp-ct-nb==3
31 c5-cp-c5-c5-nb==3
32 c5-cp-c5-cp-nb==3
33 c5-cp-c=2-cp-nb==3
34 c5-cp-cp-cp-nb==3
35 c5-cp-cp-ct-nb==3
36 c=2-c5-cp-cp-nb==3
37 c=2-c=2-c=2-c=2-nb==3
38 c=2-c=2-c=2-cp-nb==3
39 c=2-c=2-c=2-ct-nb==3
40 c=2-c=2-cp-cp-nb==3
41 c=2-c=2-cp-ct-nb==3
42 c=2-cp-cp-cp-nb==3
43 cp-c5-cp-cp-nb==3
44 cp-c5-cp-ct-nb==3
45 cp-c5-cp-op-nb==3
46 cp-c5-ct-op-nb==3
47 cp-c=2-cp-cp-nb==3
48 cp-c=2-cp-ct-nb==3
49 cp-cp-cp-cp-nb==3
50 cp-cp-cp-ct-nb==3
51 cp-cp-cp-op-nb==3
52 c-c-c-c-nb!=3
53 c-c-c-c5-nb!=3
54 c-c-c-cp-nb!=3
55 c-c-c5-c5-nb!=3
56 c-c-c5-cp-nb!=3
57 c-c-c5-op-nb!=3
58 c-c-cp-cp-nb!=3
59 c-c-cp-ct-nb!=3
60 c-c-cp-op-nb!=3
61 c5-c-c5-c5-nb!=3
62 c5-c-c5-c=2-nb!=3
63 c5-c-c5-cp-nb!=3
64 c5-c-cp-cp-nb!=3
65 c5-c-cp-op-nb!=3
66 c=2-c-cp-cp-nb!=3
67 cp-c-cp-cp-nb!=3
68 cp-c-cp-ct-nb!=3

Masses

1 12.01115
2 12.01115
3 12.01115
4 12.01115
5 12.01115
6 15.9994
7 10.01115
8 1

Pair Coeffs # lj/class2/coul/long

1 0.054 4.01
2 0.062 3.932
3 0.064 4.01
4 0.062 3.932
5 0.064 4.01
6 0.109 3.535
7 0.062 3.932
8 1e-05 1e-05

Bond Coeffs # morse

1 82.6961 2 1.53
2 82.6961 2 1.501
3 82.6961 1.9 1.506
4 82.6961 2 1.501
5 82.6961 1.5 1.42
6 85.5641 1.6 1.38
7 150 1.4 1.42
8 82.6961 1.6 1.5
9 150 1.4 1.42
10 82.6961 1.6 1.4
11 138.265 2 1.3597
12 143.882 2.1 1.34
13 82.6961 1.6 1.5
14 143.882 1.2 1.425
15 124 2.4 1.42
16 82.6961 1.6 1.4
17 138.265 2 1.3597
18 199.57 1.6 1.204
19 98.2315 1.3 0.65

Angle Coeffs # class2xe

1 112.67 39.516 -7.443 -9.5583
2 108.4 43.9594 -8.3924 -9.3379
3 108.4 43.9594 -8.3924 -9.3379
4 109.5 46 0 0
5 110.5 46 0 0
6 120.05 44.7148 -22.7352 0
7 120 80 0 0
8 120.05 44.7148 -22.7352 0
9 120 80 0 0
10 126.26 43.825 -27.7266 1.0056
11 120 36.2 0 0
12 120 36.2 0 0
13 120 80 0 0
14 120.05 44.7148 -22.7352 0
15 120 80 0 0
16 120.05 44.7148 -22.7352 0
17 120 80 0 0
18 180 200 0 0
19 108 75 0 0
20 111 44.3234 -9.4454 0
21 109.5 46 0 0
22 111 44.3234 -9.4454 0
23 110.5 46 0 0
24 120 90 0 0
25 120 80 0 0
26 120 90 0 0
27 120 80 0 0
28 104.17 101.321 -17.3072 0
29 120 36.2 0 0
30 120 36.2 0 0
31 120 36.2 0 0
32 120 36.2 0 0
33 120 90 0 0
34 120 80 0 0
35 120 90 0 0
36 120 80 0 0
37 180 200 0 0
38 180 200 0 0
39 180 200 0 0
40 103.43 112.45 -25.7326 0
41 103.43 112.45 -25.7326 0
42 109.5 46 0 0
43 120 80 0 0
44 117.6 56.48 -16.2283 -12.6333
45 120 36.2 0 0
46 120 36.2 0 0
47 120 80 0 0
48 180 200 0 0
49 180 200 0 0
50 180 200 0 0
51 111 44.3234 -9.4454 0
52 109.5 46 0 0
53 110.5 46 0 0
54 120 90 0 0
55 120 80 0 0
56 104.17 101.321 -17.3072 0
57 120 36.2 0 0
58 120 36.2 0 0
59 120 90 0 0
60 120 80 0 0
61 104.17 101.321 -17.3072 0
62 180 200 0 0
63 180 200 0 0
64 103.43 112.45 -25.7326 0
65 120 60 0 0
66 180 200 0 0
67 90 50 0 0
68 180 50 0 0

BondBond Coeffs

1 82.6961 0 1.53 1.53
2 82.6961 0 1.53 1.501
3 82.6961 0 1.53 1.501
4 82.6961 0 1.53 1.42
5 84.1301 0 1.53 1.38
6 116.348 0.227728 1.501 1.42
7 82.6961 0 1.501 1.5
8 116.348 0.227728 1.501 1.42
9 82.6961 0 1.501 1.4
10 113.289 0.280218 1.506 1.34
11 82.6961 0 1.506 1.5
12 113.289 0 1.506 1.425
13 82.6961 0 1.501 1.501
14 116.348 0.227728 1.501 1.42
15 82.6961 0 1.501 1.5
16 103.348 0.241626 1.501 1.42
17 82.6961 0 1.501 1.4
18 141.133 0 1.42 1.204
19 111.915 0 1.38 1.3597
20 82.6961 0 1.501 1.501
21 82.6961 0 1.501 1.506
22 82.6961 0 1.501 1.501
23 84.1301 0 1.501 1.38
24 150 0 1.42 1.42
25 116.348 0 1.42 1.5
26 150 0 1.42 1.42
27 116.348 0 1.42 1.4
28 144.132 0.526899 1.42 1.3597
29 82.6961 0 1.5 1.5
30 113.289 0 1.5 1.34
31 82.6961 0 1.5 1.5
32 113.289 0 1.5 1.425
33 150 0 1.42 1.42
34 116.348 0 1.42 1.5
35 137 0 1.42 1.42
36 116.348 0 1.42 1.4
37 113.289 0 1.4 1.425
38 82.6961 0 1.4 1.4
39 141.133 0 1.4 1.204
40 138.265 0.63044 1.3597 1.3597
41 138.265 0.63044 1.3597 1.3597
42 82.6961 0 1.506 1.501
43 116.348 0 1.5 1.42
44 143.882 0 1.34 1.34
45 113.289 0 1.34 1.5
46 143.882 0 1.34 1.425
47 103.348 0 1.5 1.42
48 143.882 0 1.425 1.425
49 113.289 0 1.425 1.4
50 171.726 0 1.425 1.204
51 82.6961 0 1.501 1.501
52 82.6961 0 1.501 1.42
53 84.1301 0 1.501 1.38
54 150 0 1.42 1.42
55 116.348 0 1.42 1.4
56 144.132 0.526899 1.42 1.3597
57 82.6961 0 1.5 1.5
58 113.289 0 1.5 1.425
59 124 0 1.42 1.42
60 103.348 0 1.42 1.4
61 131.132 0.5524 1.42 1.3597
62 82.6961 0 1.4 1.4
63 141.133 0 1.4 1.204
64 138.265 0.63044 1.3597 1.3597
65 110.481 0 1.4 1.3597
66 199.57 0 1.204 1.204
67 111.116 0 0.65 1.42
68 98.2315 0 0.65 0.65

BondAngle Coeffs

1 82.6961 82.6961 0.220151 0.220151 1.53 1.53
2 82.6961 82.6961 0 0 1.53 1.501
3 82.6961 82.6961 0 0 1.53 1.501
4 82.6961 82.6961 0 0 1.53 1.42
5 82.6961 85.5641 0 0 1.53 1.38
6 82.6961 150 0.533407 0.321855 1.501 1.42
7 82.6961 82.6961 0 0 1.501 1.5
8 82.6961 150 0.533407 0.321855 1.501 1.42
9 82.6961 82.6961 0 0 1.501 1.4
10 82.6961 143.882 0.437026 0.290146 1.506 1.34
11 82.6961 82.6961 0 0 1.506 1.5
12 82.6961 143.882 0 0 1.506 1.425
13 82.6961 82.6961 0 0 1.501 1.501
14 82.6961 150 0.533407 0.321855 1.501 1.42
15 82.6961 82.6961 0 0 1.501 1.5
16 82.6961 124 0.533407 0.353993 1.501 1.42
17 82.6961 82.6961 0 0 1.501 1.4
18 82.6961 199.57 0 0 1.42 1.204
19 85.5641 138.265 0 0 1.38 1.3597
20 82.6961 82.6961 0 0 1.501 1.501
21 82.6961 82.6961 0 0 1.501 1.506
22 82.6961 82.6961 0 0 1.501 1.501
23 82.6961 85.5641 0 0 1.501 1.38
24 150 150 0 0 1.42 1.42
25 150 82.6961 0 0 1.42 1.5
26 150 150 0 0 1.42 1.42
27 150 82.6961 0 0 1.42 1.4
28 150 138.265 0.570605 0.824155 1.42 1.3597
29 82.6961 82.6961 0 0 1.5 1.5
30 82.6961 143.882 0 0 1.5 1.34
31 82.6961 82.6961 0 0 1.5 1.5
32 82.6961 143.882 0 0 1.5 1.425
33 150 150 0 0 1.42 1.42
34 150 82.6961 0 0 1.42 1.5
35 150 124 0 0 1.42 1.42
36 150 82.6961 0 0 1.42 1.4
37 82.6961 143.882 0 0 1.4 1.425
38 82.6961 82.6961 0 0 1.4 1.4
39 82.6961 199.57 0 0 1.4 1.204
40 138.265 138.265 0.896826 0.896826 1.3597 1.3597
41 138.265 138.265 0.896826 0.896826 1.3597 1.3597
42 82.6961 82.6961 0 0 1.506 1.501
43 82.6961 150 0 0 1.5 1.42
44 143.882 143.882 0 0 1.34 1.34
45 143.882 82.6961 0 0 1.34 1.5
46 143.882 143.882 0 0 1.34 1.425
47 82.6961 124 0 0 1.5 1.42
48 143.882 143.882 0 0 1.425 1.425
49 143.882 82.6961 0 0 1.425 1.4
50 143.882 199.57 0 0 1.425 1.204
51 82.6961 82.6961 0 0 1.501 1.501
52 82.6961 82.6961 0 0 1.501 1.42
53 82.6961 85.5641 0 0 1.501 1.38
54 150 150 0 0 1.42 1.42
55 150 82.6961 0 0 1.42 1.4
56 150 138.265 0.570605 0.824155 1.42 1.3597
57 82.6961 82.6961 0 0 1.5 1.5
58 82.6961 143.882 0 0 1.5 1.425
59 124 124 0 0 1.42 1.42
60 124 82.6961 0 0 1.42 1.4
61 124 138.265 0.627582 0.824155 1.42 1.3597
62 82.6961 82.6961 0 0 1.4 1.4
63 82.6961 199.57 0 0 1.4 1.204
64 138.265 138.265 0.896826 0.896826 1.3597 1.3597
65 82.6961 138.265 0 0 1.4 1.3597
66 199.57 199.57 0 0 1.204 1.204
67 98.2315 124 0 0 0.65 1.42
68 98.2315 98.2315 0 0 0.65 0.65

Dihedral Coeffs # class2xe

1 0 0 0.0514 0 -0.143 0
2 0 0 0 0 0.158 0
3 0 0 0 0 0.158 0
4 0 0 0 0 0.158 0
5 0 0 0 0 0.158 0
6 0 0 0 0 0.158 0
7 0 0 0 0 0.158 0
8 0 0 0 0 0.158 0
9 0 0 0 0 0.158 0
10 -0.2802 0 -0.0678 0 -0.0122 0
11 -0.2802 0 -0.0678 0 -0.0122 0
12 0 0 0 0 0 0
13 -0.2802 0 -0.0678 0 -0.0122 0
14 -0.2802 0 -0.0678 0 -0.0122 0
15 -0.2802 0 -0.0678 0 -0.0122 0
16 0 0 0 0 0 0
17 0 0 0 0 0 0
18 0 0 0 0 0 0
19 0 0 0 0 0.211 0
20 0 0 0 0 0.211 0
21 0 0 0 0 0 0
22 -0.2802 0 -0.0678 0 -0.0122 0
23 -0.2802 0 -0.0678 0 -0.0122 0
24 0 0 0 0 0 0
25 0 0 0 0 0 0
26 -0.2802 0 -0.0678 0 -0.0122 0
27 0 0 0 0 0 0
28 -0.2802 0 -0.0678 0 -0.0122 0
29 -0.2802 0 -0.0678 0 -0.0122 0
30 0 0 0 0 0 0
31 0 0 0 0 0 0
32 0 0 0 0 0 0
33 0 0 0 0 0 0
34 0 0 0 0 0 0
35 0 0 0 0 0.13 0
36 0 0 0 0 0.13 0
37 0 0 0 0 0 0
38 0 0 0 0 0 0
39 -0.2802 0 -0.0678 0 -0.0122 0
40 0 0 0 0 0 0
41 0 0 3 0 0 0
42 0 0 4.4072 0 0 0
43 0 0 0 0 0 0
44 0 0 3 0 0 0
45 0 0 3 0 0 0
46 0 0 3 0 0 0
47 0 0 0 0 0 0
48 0 0 0 0 0 0
49 0 0 3 0 0 0
50 0 0 4.4072 0 0 0
51 0 0 3 0 0 0
52 0 0 3 0 0 0
53 0 0 3 0 0 0
54 0 0 10.6923 0 0 0
55 0 0 3 0 0 0
56 0 0 3 0 0 0
57 0 0 10.6923 0 0 0
58 0 0 3 0 0 0
59 0 0 0.5 0 0 0
60 0 0 0.5 0 0 0
61 0 0 0.5 0 0 0
62 0 0 0.5 0 0 0
63 0 0 0.5 0 0 0
64 0 0 0.5 0 0 0
65 0 0 0.5 0 0 0
66 0 0 0.5 0 0 0
67 0 0 0.5 0 0 0
68 0 0 3 0 0 0
69 0 0 4.4072 0 0 0
70 0 0 0 0 0 0
71 0 0 3 0 0 0
72 0 0 3 0 0 0
73 0 0 4.4072 0 0 0
74 0 0 0 0 0 0
75 0 0 0 0 0 0
76 0 0 3 0 0 0
77 0 0 3 0 0 0
78 0 0 3 0 0 0
79 0 0 0 0 0 0
80 0 0 0 0 0 0
81 0 0 0 0 0 0
82 0 0 0 0 0 0
83 0 0 0 0 0 0
84 0 0 27.5402 0 0 0
85 0 0 27.5402 0 0 0
86 0 0 27.5402 0 0 0
87 0 0 0 0 0.211 0
88 0 0 0.5 0 0 0
89 0 0 0.5 0 0 0
90 0 0 3 0 0 0
91 0 0 3 0 0 0
92 0 0 3 0 0 0
93 0 0 3 0 0 0
94 0 0 3 0 0 0
95 0 0 3 0 0 0
96 0 0 3 0 0 0
97 0 0 3 0 0 0
98 0 0 3 0 0 0
99 0 0 3 0 0 0
100 0 0 3 0 0 0
101 0 0 3 0 0 0
102 0 0 0.5 0 0 0
103 0 0 0.5 0 0 0
104 0 0 0.5 0 0 0
105 0 0 0.5 0 0 0
106 0 0 0.5 0 0 0
107 0 0 0 0 0 0
108 0 0 0 0 0 0
109 0 0 0 0 0 0
110 0 0 0 0 0 0
111 0 0 0 0 0 0
112 0 0 0 0 0 0
113 0 0 0 0 0 0
114 0 0 0 0 0 0
115 0 0 0 0 0 0
116 0 0 0 0 0 0
117 0 0 0 0 0 0
118 0 0 0 0 0 0
119 0 0 0 0 0 0
120 -0.2802 0 -0.0678 0 -0.0122 0
121 0 0 0 0 0 0
122 0 0 0 0 0 0
123 0 0 4.4072 0 0 0
124 0 0 3 0 0 0
125 0 0 4.4072 0 0 0
126 0 0 3 0 0 0
127 0 0 0 0 0 0
128 0 0 3 0 0 0
129 0 0 3 0 0 0
130 0 0 10.6923 0 0 0
131 0 0 3 0 0 0
132 0 0 0.5 0 0 0
133 0 0 0.5 0 0 0
134 0 0 0.5 0 0 0
135 0 0 0.5 0 0 0
136 0 0 0.5 0 0 0
137 0 0 0.5 0 0 0
138 0 0 0.5 0 0 0
139 0 0 0.5 0 0 0
140 0 0 3 0 0 0
141 0 0 4.4072 0 0 0
142 0 0 0 0 0 0
143 0 0 3 0 0 0
144 0 0 3 0 0 0
145 0 0 3 0 0 0
146 0 0 0 0 0 0
147 0 0 0 0 0 0
148 0 0 3 0 0 0
149 0 0 4.4072 0 0 0
150 0 0 3 0 0 0
151 0 0 3 0 0 0
152 0 0 3 0 0 0
153 0 0 3 0 0 0
154 0 0 10.6923 0 0 0
155 0 0 10.6923 0 0 0
156 0 0 3 0 0 0
157 0 0 3 0 0 0
158 0 0 0 0 0 0
159 0 0 0 0 0 0
160 0 0 0 0 0 0
161 0 0 0 0 0 0
162 0 0 0 0 0 0
163 0 0 0 0 0 0
164 0 0 27.5402 0 0 0
165 0 0 0 0 0 0
166 0 0 0 0 0 0
167 0 0 0 0 0 0
168 0 0 0 0 0 0
169 0 0 0 0 0 0
170 0 0 0 0 0 0
171 0 0 0 0 0 0
172 0 0 0 0 0 0
173 0 0 0 0 0 0
174 0 0 0 0 0 0
175 0 0 0 0 0 0
176 0 0 0 0 0 0
177 0 0 0 0 0 0
178 0 0 0 0 0 0
179 0 0 0 0 0.13 0
180 0 0 1.8 0 0 0
181 0 0 1.8 0 0 0
182 0 0 27.5402 0 0 0
183 0 0 1.8 0 0 0
184 0 0 27.5402 0 0 0

AngleAngleTorsion Coeffs

1 -22.045 112.67 112.67
2 0 112.67 108.4
3 0 108.4 108.4
4 0 108.4 108.4
5 0 112.67 108.4
6 0 108.4 108.4
7 0 108.4 109.5
8 0 108.4 109.5
9 0 108.4 110.5
10 0 108.4 120.05
11 0 111 120.05
12 0 108.4 120
13 0 111 120.05
14 0 108.4 120.05
15 0 111 120.05
16 0 109.5 120.05
17 0 109.5 120
18 0 111 120
19 0 120 109.5
20 0 120 109.5
21 0 108.4 120
22 0 108.4 120.05
23 0 111 120.05
24 0 108.4 120
25 0 111 120
26 0 111 120.05
27 0 109.5 120.05
28 0 111 120.05
29 0 108.4 120.05
30 0 111 120
31 0 111 120
32 0 108.4 120
33 0 109.5 180
34 0 109.5 180
35 0 110.5 108
36 0 110.5 108
37 0 109.5 120.05
38 0 111 120
39 0 111 120.05
40 0 110.5 120.05
41 0 120.05 120.05
42 -14.4097 120.05 118.9
43 0 0 0
44 0 120 120
45 0 120.05 120
46 0 118.9 120
47 0 0 0
48 0 0 0
49 0 120 118.9
50 -14.4097 120.05 118.9
51 0 120.05 120
52 0 118.9 120
53 0 118.9 120
54 0 118.9 104.17
55 0 120 104.17
56 0 120.05 104.17
57 0 118.9 104.17
58 0 104.17 104.17
59 0 120 120
60 0 120 120
61 0 120 120
62 0 120 120
63 0 120 120
64 0 120 120
65 0 120 120
66 0 120 120
67 0 120 120
68 0 120.05 120.05
69 -14.4097 120.05 118.9
70 0 0 0
71 0 118.9 120
72 0 120.05 120
73 -14.4097 120.05 118.9
74 0 0 0
75 0 0 0
76 0 120 118.9
77 0 118.9 120
78 0 118.9 120
79 0 120 180
80 0 120 180
81 0 120 180
82 0 120 180
83 0 120 180
84 0 104.17 103.43
85 0 104.17 103.43
86 0 104.17 103.43
87 0 126.26 109.5
88 0 120 120
89 0 120 120
90 0 120 120
91 0 117.6 117.6
92 0 126.26 117.6
93 0 120 117.6
94 0 120 120
95 0 117.6 120
96 0 126.26 120
97 0 120 120
98 0 117.6 120
99 0 120 120
100 0 120 120
101 0 120 120
102 0 120 120
103 0 120 120
104 0 120 120
105 0 120 120
106 0 120 120
107 0 120 180
108 0 120 180
109 0 120 180
110 0 120 180
111 0 120 180
112 0 120 180
113 0 120 180
114 0 120 180
115 0 120 180
116 0 111 120
117 0 109.5 120.05
118 0 111 120
119 0 111 120
120 0 111 120.05
121 0 109.5 120.05
122 0 110.5 120.05
123 -14.4097 120.05 118.9
124 0 120.05 120
125 -14.4097 120.05 118.9
126 0 120 118.9
127 0 0 0
128 0 118.9 120
129 0 120 104.17
130 0 118.9 104.17
131 0 120.05 104.17
132 0 120 120
133 0 120 120
134 0 120 120
135 0 120 120
136 0 120 120
137 0 120 120
138 0 120 120
139 0 120 120
140 0 120.05 120.05
141 -14.4097 120.05 118.9
142 0 0 0
143 0 120 120
144 0 120.05 120
145 0 118.9 120
146 0 0 0
147 0 0 0
148 0 120 118.9
149 -14.4097 120.05 118.9
150 0 118.9 120
151 0 120.05 120
152 0 120 120
153 0 118.9 120
154 0 118.9 104.17
155 0 118.9 104.17
156 0 120.05 104.17
157 0 120 104.17
158 0 120 180
159 0 120 180
160 0 120 180
161 0 120 180
162 0 120 180
163 0 120 180
164 0 104.17 103.43
165 0 120 180
166 0 120 180
167 0 120 180
168 0 120 180
169 0 120 180
170 0 120 180
171 0 120 180
172 0 180 180
173 0 180 180
174 0 180 180
175 0 180 180
176 0 180 180
177 0 180 180
178 0 180 180
179 0 110.5 108
180 0 104.17 108
181 0 104.17 108
182 0 104.17 103.43
183 0 120 103.43
184 0 104.17 103.43

EndBondTorsion Coeffs

1 2 2 -0.0732 0 0 -0.0732 0 0 1.53 1.53
2 2 2 0 0 0 0 0 0 1.53 1.501
3 2 2 0 0 0 0 0 0 1.501 1.501
4 2 2 0 0 0 0 0 0 1.501 1.501
5 2 2 0 0 0 0 0 0 1.53 1.501
6 2 2 0 0 0 0 0 0 1.501 1.501
7 2 1.5 0 0 0 0 0 0 1.501 1.42
8 2 1.5 0 0 0 0 0 0 1.501 1.42
9 2 1.6 0 0 0 0 0 0 1.501 1.38
10 2 1.4 0 0 0 0 0 0 1.53 1.42
11 2 1.4 0 0 0 0 0 0 1.501 1.42
12 2 1.6 0 0 0 0 0 0 1.53 1.5
13 2 1.4 0 0 0 0 0 0 1.501 1.42
14 2 1.4 0 0 0 0 0 0 1.53 1.42
15 2 1.4 0 0 0 0 0 0 1.501 1.42
16 1.9 1.4 0 0 0 0 0 0 1.506 1.42
17 1.9 1.6 0 0 0 0 0 0 1.506 1.4
18 2 1.6 0 0 0 0 0 0 1.501 1.4
19 1.6 2 0 0 0 0 0 0 1.5 1.501
20 1.2 2 0 0 0 0 0 0 1.425 1.501
21 2 2 0 0 0 0 0 0 1.53 1.501
22 2 1.4 0 0 0 0 0 0 1.53 1.42
23 2 1.4 0 0 0 0 0 0 1.501 1.42
24 2 1.6 0 0 0 0 0 0 1.53 1.5
25 2 1.6 0 0 0 0 0 0 1.501 1.5
26 2 2.4 0 0 0 0 0 0 1.501 1.42
27 1.9 2.4 0 0 0 0 0 0 1.506 1.42
28 2 2.4 0 0 0 0 0 0 1.501 1.42
29 2 2.4 0 0 0 0 0 0 1.53 1.42
30 2 1.6 0 0 0 0 0 0 1.501 1.4
31 2 1.6 0 0 0 0 0 0 1.501 1.4
32 2 1.6 0 0 0 0 0 0 1.53 1.4
33 2 1.6 0 0 0 0 0 0 1.53 1.204
34 2 1.6 0 0 0 0 0 0 1.501 1.204
35 2 2 0 0 0 0 0 0 1.53 1.3597
36 2 2 0 0 0 0 0 0 1.501 1.3597
37 1.9 1.4 0 0 0 0 0 0 1.506 1.42
38 2 1.6 0 0 0 0 0 0 1.501 1.5
39 2 1.4 0 0 0 0 0 0 1.501 1.42
40 1.6 1.4 0 0 0 0 0 0 1.38 1.42
41 2 2 0 0 0 0 0 0 1.501 1.501
42 2 1.4 0 0.2421 0 0 -0.6918 0 1.501 1.42
43 1.4 1.4 0 0 0 0 0 0 1.42 1.42
44 1.6 1.6 0 0 0 0 0 0 1.5 1.5
45 2 1.6 0 0 0 0 0 0 1.501 1.5
46 1.4 1.6 0 0 0 0 0 0 1.42 1.5
47 1.4 1.4 0 0 0 0 0 0 1.42 1.42
48 1.4 1.4 0 0 0 0 0 0 1.42 1.42
49 1.6 1.4 0 0 0 0 0 0 1.5 1.42
50 2 1.4 0 0.2421 0 0 -0.6918 0 1.501 1.42
51 2 1.6 0 0 0 0 0 0 1.501 1.4
52 1.4 1.6 0 0 0 0 0 0 1.42 1.4
53 1.4 1.6 0 0 0 0 0 0 1.42 1.4
54 1.4 2 0 -30.5414 0 0 -19.3285 0 1.42 1.3597
55 1.6 2 0 0 0 0 0 0 1.5 1.3597
56 2 2 0 0 0 0 0 0 1.501 1.3597
57 1.4 2 0 -30.5414 0 0 -19.3285 0 1.42 1.3597
58 2 2 0 0 0 0 0 0 1.3597 1.3597
59 1.6 1.4 0 0 0 0 0 0 1.5 1.42
60 1.6 2 0 0 0 0 0 0 1.5 1.501
61 2.1 2 0 0 0 0 0 0 1.34 1.501
62 2.1 1.4 0 0 0 0 0 0 1.34 1.42
63 1.6 2 0 0 0 0 0 0 1.5 1.501
64 1.6 1.4 0 0 0 0 0 0 1.5 1.42
65 1.6 1.4 0 0 0 0 0 0 1.5 1.42
66 1.2 1.4 0 0 0 0 0 0 1.425 1.42
67 1.2 1.4 0 0 0 0 0 0 1.425 1.42
68 2 2 0 0 0 0 0 0 1.501 1.501
69 2 1.4 0 0.2421 0 0 -0.6918 0 1.501 1.42
70 1.4 1.4 0 0 0 0 0 0 1.42 1.42
71 1.4 1.6 0 0 0 0 0 0 1.42 1.5
72 2 1.6 0 0 0 0 0 0 1.501 1.5
73 2 2.4 0 0.2421 0 0 -0.6918 0 1.501 1.42
74 1.4 2.4 0 0 0 0 0 0 1.42 1.42
75 1.4 2.4 0 0 0 0 0 0 1.42 1.42
76 1.6 2.4 0 0 0 0 0 0 1.5 1.42
77 1.4 1.6 0 0 0 0 0 0 1.42 1.4
78 1.4 1.6 0 0 0 0 0 0 1.42 1.4
79 1.4 1.6 0 0 0 0 0 0 1.42 1.4
80 1.4 1.6 0 0 0 0 0 0 1.42 1.4
81 2 1.6 0 0 0 0 0 0 1.501 1.204
82 1.4 1.6 0 0 0 0 0 0 1.42 1.204
83 1.4 1.6 0 0 0 0 0 0 1.42 1.204
84 1.4 2 0 -10.4096 0 0 -22.4567 0 1.42 1.3597
85 1.4 2 0 -10.4096 0 0 -22.4567 0 1.42 1.3597
86 1.4 2 0 -10.4096 0 0 -22.4567 0 1.42 1.3597
87 2.1 2 0 0 0 0 0 0 1.34 1.501
88 1.6 1.4 0 0 0 0 0 0 1.5 1.42
89 2.1 1.4 0 0 0 0 0 0 1.34 1.42
90 1.6 1.6 0 0 0 0 0 0 1.5 1.5
91 2.1 2.1 0 0 0 0 0 0 1.34 1.34
92 1.9 2.1 0 0 0 0 0 0 1.506 1.34
93 1.6 2.1 0 0 0 0 0 0 1.5 1.34
94 1.6 1.6 0 0 0 0 0 0 1.5 1.5
95 2.1 1.6 0 0 0 0 0 0 1.34 1.5
96 1.9 1.6 0 0 0 0 0 0 1.506 1.5
97 1.6 1.6 0 0 0 0 0 0 1.5 1.5
98 2.1 1.2 0 0 0 0 0 0 1.34 1.425
99 1.6 1.2 0 0 0 0 0 0 1.5 1.425
100 1.2 1.2 0 0 0 0 0 0 1.425 1.425
101 1.6 1.2 0 0 0 0 0 0 1.5 1.425
102 1.6 1.4 0 0 0 0 0 0 1.5 1.42
103 1.6 2.4 0 0 0 0 0 0 1.5 1.42
104 2.1 2.4 0 0 0 0 0 0 1.34 1.42
105 1.9 2.4 0 0 0 0 0 0 1.506 1.42
106 1.6 2.4 0 0 0 0 0 0 1.5 1.42
107 1.6 1.2 0 0 0 0 0 0 1.5 1.425
108 2.1 1.2 0 0 0 0 0 0 1.34 1.425
109 2.1 1.6 0 0 0 0 0 0 1.34 1.4
110 1.6 1.6 0 0 0 0 0 0 1.5 1.4
111 1.6 1.6 0 0 0 0 0 0 1.5 1.4
112 1.6 1.6 0 0 0 0 0 0 1.5 1.204
113 1.6 1.6 0 0 0 0 0 0 1.5 1.204
114 2.1 1.6 0 0 0 0 0 0 1.34 1.204
115 1.9 1.6 0 0 0 0 0 0 1.506 1.204
116 2 2 0 0 0 0 0 0 1.501 1.501
117 1.9 1.4 0 0 0 0 0 0 1.506 1.42
118 2 1.6 0 0 0 0 0 0 1.501 1.5
119 2 2 0 0 0 0 0 0 1.501 1.501
120 2 1.4 0 0 0 0 0 0 1.501 1.42
121 1.5 2.4 0 0 0 0 0 0 1.42 1.42
122 1.6 2.4 0 0 0 0 0 0 1.38 1.42
123 2 1.4 0 0.2421 0 0 -0.6918 0 1.501 1.42
124 2 1.6 0 0 0 0 0 0 1.501 1.5
125 2 1.4 0 0.2421 0 0 -0.6918 0 1.501 1.42
126 1.6 1.4 0 0 0 0 0 0 1.5 1.42
127 1.4 1.4 0 0 0 0 0 0 1.42 1.42
128 2.4 1.6 0 0 0 0 0 0 1.42 1.4
129 1.6 2 0 0 0 0 0 0 1.5 1.3597
130 2.4 2 0 -30.5414 0 0 -19.3285 0 1.42 1.3597
131 2 2 0 0 0 0 0 0 1.501 1.3597
132 1.6 2 0 0 0 0 0 0 1.5 1.501
133 2.1 1.4 0 0 0 0 0 0 1.34 1.42
134 2.1 2 0 0 0 0 0 0 1.34 1.501
135 1.6 2 0 0 0 0 0 0 1.5 1.501
136 1.6 1.4 0 0 0 0 0 0 1.5 1.42
137 1.2 1.4 0 0 0 0 0 0 1.425 1.42
138 1.2 2 0 0 0 0 0 0 1.425 1.501
139 1.2 2.4 0 0 0 0 0 0 1.425 1.42
140 2 2 0 0 0 0 0 0 1.501 1.501
141 2 1.4 0 0.2421 0 0 -0.6918 0 1.501 1.42
142 1.4 1.4 0 0 0 0 0 0 1.42 1.42
143 1.6 1.6 0 0 0 0 0 0 1.5 1.5
144 2 1.6 0 0 0 0 0 0 1.501 1.5
145 1.4 1.6 0 0 0 0 0 0 1.42 1.5
146 1.4 2.4 0 0 0 0 0 0 1.42 1.42
147 2.4 2.4 0 0 0 0 0 0 1.42 1.42
148 1.6 2.4 0 0 0 0 0 0 1.5 1.42
149 2 2.4 0 0.2421 0 0 -0.6918 0 1.501 1.42
150 2.4 1.6 0 0 0 0 0 0 1.42 1.4
151 2 1.6 0 0 0 0 0 0 1.501 1.4
152 1.6 1.6 0 0 0 0 0 0 1.5 1.4
153 1.4 1.6 0 0 0 0 0 0 1.42 1.4
154 1.4 2 0 -30.5414 0 0 -19.3285 0 1.42 1.3597
155 2.4 2 0 -30.5414 0 0 -19.3285 0 1.42 1.3597
156 2 2 0 0 0 0 0 0 1.501 1.3597
157 1.6 2 0 0 0 0 0 0 1.5 1.3597
158 1.4 1.2 0 0 0 0 0 0 1.42 1.425
159 2 1.2 0 0 0 0 0 0 1.501 1.425
160 2 1.6 0 0 0 0 0 0 1.501 1.4
161 2.4 1.6 0 0 0 0 0 0 1.42 1.4
162 2.4 1.6 0 0 0 0 0 0 1.42 1.204
163 2 1.6 0 0 0 0 0 0 1.501 1.204
164 2.4 2 0 -10.4096 0 0 -22.4567 0 1.42 1.3597
165 1.4 1.2 0 0 0 0 0 0 1.42 1.425
166 2 1.6 0 0 0 0 0 0 1.3597 1.4
167 2 1.2 0 0 0 0 0 0 1.3597 1.425
168 2.1 1.6 0 0 0 0 0 0 1.34 1.4
169 1.6 1.2 0 0 0 0 0 0 1.5 1.425
170 2.4 1.6 0 0 0 0 0 0 1.42 1.4
171 2.4 1.2 0 0 0 0 0 0 1.42 1.425
172 1.6 1.2 0 0 0 0 0 0 1.4 1.425
173 1.2 1.2 0 0 0 0 0 0 1.425 1.425
174 1.6 1.6 0 0 0 0 0 0 1.4 1.4
175 1.6 1.6 0 0 0 0 0 0 1.4 1.4
176 1.2 1.6 0 0 0 0 0 0 1.425 1.4
177 1.5 1.6 0 0 0 0 0 0 1.42 1.4
178 1.2 1.6 0 0 0 0 0 0 1.425 1.204
179 2 2 0 0 0 0 0 0 1.501 1.3597
180 1.4 1.6 0 0 0 0 0 0 1.42 1.38
181 1.4 1.6 0 0 0 0 0 0 1.42 1.38
182 1.4 2 0 -10.4096 0 0 -22.4567 0 1.42 1.3597
183 1.6 2 0 0 0 0 0 0 1.4 1.3597
184 2.4 2 0 -10.4096 0 0 -22.4567 0 1.42 1.3597

MiddleBondTorsion Coeffs

1 2 -17.787 -7.1877 0 1.53
2 2 0 0 0 1.53
3 2 0 0 0 1.53
4 2 0 0 0 1.53
5 2 0 0 0 1.53
6 2 0 0 0 1.53
7 2 0 0 0 1.53
8 2 0 0 0 1.53
9 2 0 0 0 1.53
10 2 0 0 0 1.501
11 2 0 0 0 1.501
12 2 0 0 0 1.501
13 2 0 0 0 1.501
14 2 0 0 0 1.501
15 2 0 0 0 1.501
16 2 0 0 0 1.501
17 2 0 0 0 1.501
18 2 0 0 0 1.501
19 1.9 0 0 0 1.506
20 1.9 0 0 0 1.506
21 2 0 0 0 1.501
22 2 0 0 0 1.501
23 2 0 0 0 1.501
24 2 0 0 0 1.501
25 2 0 0 0 1.501
26 2 0 0 0 1.501
27 2 0 0 0 1.501
28 2 0 0 0 1.501
29 2 0 0 0 1.501
30 2 0 0 0 1.501
31 2 0 0 0 1.501
32 2 0 0 0 1.501
33 1.5 0 0 0 1.42
34 1.5 0 0 0 1.42
35 1.6 0 0 0 1.38
36 1.6 0 0 0 1.38
37 2 0 0 0 1.501
38 2 0 0 0 1.501
39 2 0 0 0 1.501
40 2 0 0 0 1.501
41 1.4 0 0 0 1.42
42 1.4 0 9.1792 0 1.42
43 1.4 0 0 0 1.42
44 1.4 0 0 0 1.42
45 1.4 0 0 0 1.42
46 1.4 0 0 0 1.42
47 1.4 0 0 0 1.42
48 1.4 0 0 0 1.42
49 1.4 0 0 0 1.42
50 1.4 0 9.1792 0 1.42
51 1.4 0 0 0 1.42
52 1.4 0 0 0 1.42
53 1.4 0 0 0 1.42
54 1.4 0 26.4272 0 1.42
55 1.4 0 0 0 1.42
56 1.4 0 0 0 1.42
57 1.4 0 26.4272 0 1.42
58 1.4 0 0 0 1.42
59 1.6 0 0 0 1.5
60 1.6 0 0 0 1.5
61 1.6 0 0 0 1.5
62 1.6 0 0 0 1.5
63 1.6 0 0 0 1.5
64 1.6 0 0 0 1.5
65 1.6 0 0 0 1.5
66 1.6 0 0 0 1.5
67 1.6 0 0 0 1.5
68 1.4 0 0 0 1.42
69 1.4 0 9.1792 0 1.42
70 1.4 0 0 0 1.42
71 1.4 0 0 0 1.42
72 1.4 0 0 0 1.42
73 1.4 0 9.1792 0 1.42
74 1.4 0 0 0 1.42
75 1.4 0 0 0 1.42
76 1.4 0 0 0 1.42
77 1.4 0 0 0 1.42
78 1.4 0 0 0 1.42
79 1.6 0 0 0 1.4
80 1.6 0 0 0 1.4
81 1.6 0 0 0 1.4
82 1.6 0 0 0 1.4
83 1.6 0 0 0 1.4
84 2 0 42.2966 0 1.3597
85 2 0 42.2966 0 1.3597
86 2 0 42.2966 0 1.3597
87 1.9 0 0 0 1.506
88 1.6 0 0 0 1.5
89 1.6 0 0 0 1.5
90 2.1 0 0 0 1.34
91 2.1 0 0 0 1.34
92 2.1 0 0 0 1.34
93 2.1 0 0 0 1.34
94 2.1 0 0 0 1.34
95 2.1 0 0 0 1.34
96 2.1 0 0 0 1.34
97 2.1 0 0 0 1.34
98 2.1 0 0 0 1.34
99 2.1 0 0 0 1.34
100 2.1 0 0 0 1.34
101 2.1 0 0 0 1.34
102 1.6 0 0 0 1.5
103 1.6 0 0 0 1.5
104 1.6 0 0 0 1.5
105 1.6 0 0 0 1.5
106 1.6 0 0 0 1.5
107 1.2 0 0 0 1.425
108 1.2 0 0 0 1.425
109 1.2 0 0 0 1.425
110 1.2 0 0 0 1.425
111 1.2 0 0 0 1.425
112 1.2 0 0 0 1.425
113 1.2 0 0 0 1.425
114 1.2 0 0 0 1.425
115 1.2 0 0 0 1.425
116 2 0 0 0 1.501
117 2 0 0 0 1.501
118 2 0 0 0 1.501
119 2 0 0 0 1.501
120 2 0 0 0 1.501
121 2 0 0 0 1.501
122 2 0 0 0 1.501
123 1.4 0 9.1792 0 1.42
124 1.4 0 0 0 1.42
125 1.4 0 9.1792 0 1.42
126 1.4 0 0 0 1.42
127 1.4 0 0 0 1.42
128 1.4 0 0 0 1.42
129 1.4 0 0 0 1.42
130 1.4 0 26.4272 0 1.42
131 1.4 0 0 0 1.42
132 1.6 0 0 0 1.5
133 1.6 0 0 0 1.5
134 1.6 0 0 0 1.5
135 1.6 0 0 0 1.5
136 1.6 0 0 0 1.5
137 1.6 0 0 0 1.5
138 1.6 0 0 0 1.5
139 1.6 0 0 0 1.5
140 2.4 0 0 0 1.42
141 2.4 0 9.1792 0 1.42
142 2.4 0 0 0 1.42
143 2.4 0 0 0 1.42
144 2.4 0 0 0 1.42
145 2.4 0 0 0 1.42
146 2.4 0 0 0 1.42
147 2.4 0 0 0 1.42
148 2.4 0 0 0 1.42
149 2.4 0 9.1792 0 1.42
150 2.4 0 0 0 1.42
151 2.4 0 0 0 1.42
152 2.4 0 0 0 1.42
153 2.4 0 0 0 1.42
154 2.4 0 26.4272 0 1.42
155 2.4 0 26.4272 0 1.42
156 2.4 0 0 0 1.42
157 2.4 0 0 0 1.42
158 1.6 0 0 0 1.4
159 1.6 0 0 0 1.4
160 1.6 0 0 0 1.4
161 1.6 0 0 0 1.4
162 1.6 0 0 0 1.4
163 1.6 0 0 0 1.4
164 2 0 42.2966 0 1.3597
165 1.6 0 0 0 1.4
166 1.6 0 0 0 1.4
167 1.6 0 0 0 1.4
168 1.2 0 0 0 1.425
169 1.2 0 0 0 1.425
170 1.6 0 0 0 1.4
171 1.6 0 0 0 1.4
172 1.6 0 0 0 1.204
173 1.6 0 0 0 1.204
174 1.6 0 0 0 1.204
175 1.6 0 0 0 1.204
176 1.6 0 0 0 1.204
177 1.6 0 0 0 1.204
178 1.6 0 0 0 1.204
179 1.6 0 0 0 1.38
180 2 0 0 0 1.3597
181 2 0 0 0 1.3597
182 2 0 42.2966 0 1.3597
183 2 0 0 0 1.3597
184 2 0 42.2966 0 1.3597

BondBond13 Coeffs

1 82.6961 0 1.53 1.53
2 82.6961 0 1.53 1.501
3 82.6961 0 1.501 1.501
4 82.6961 0 1.501 1.501
5 82.6961 0 1.53 1.501
6 82.6961 0 1.501 1.501
7 82.6961 0 1.501 1.42
8 82.6961 0 1.501 1.42
9 84.1301 0 1.501 1.38
10 116.348 0 1.53 1.42
11 116.348 0 1.501 1.42
12 82.6961 0 1.53 1.5
13 116.348 0 1.501 1.42
14 116.348 0 1.53 1.42
15 116.348 0 1.501 1.42
16 116.348 0 1.506 1.42
17 82.6961 0 1.506 1.4
18 82.6961 0 1.501 1.4
19 82.6961 0 1.5 1.501
20 113.289 0 1.425 1.501
21 82.6961 0 1.53 1.501
22 116.348 0 1.53 1.42
23 116.348 0 1.501 1.42
24 82.6961 0 1.53 1.5
25 82.6961 0 1.501 1.5
26 103.348 0 1.501 1.42
27 103.348 0 1.506 1.42
28 103.348 0 1.501 1.42
29 103.348 0 1.53 1.42
30 82.6961 0 1.501 1.4
31 82.6961 0 1.501 1.4
32 82.6961 0 1.53 1.4
33 141.133 0 1.53 1.204
34 141.133 0 1.501 1.204
35 110.481 0 1.53 1.3597
36 110.481 0 1.501 1.3597
37 116.348 0 1.506 1.42
38 82.6961 0 1.501 1.5
39 116.348 0 1.501 1.42
40 117.782 0 1.38 1.42
41 82.6961 0 1.501 1.501
42 116.348 0.103828 1.501 1.42
43 150 0 1.42 1.42
44 82.6961 0 1.5 1.5
45 82.6961 0 1.501 1.5
46 116.348 0 1.42 1.5
47 150 0 1.42 1.42
48 150 0 1.42 1.42
49 116.348 0 1.5 1.42
50 116.348 0.103828 1.501 1.42
51 82.6961 0 1.501 1.4
52 116.348 0 1.42 1.4
53 116.348 0 1.42 1.4
54 144.132 0.506119 1.42 1.3597
55 110.481 0 1.5 1.3597
56 110.481 0 1.501 1.3597
57 144.132 0.506119 1.42 1.3597
58 138.265 0 1.3597 1.3597
59 116.348 0 1.5 1.42
60 82.6961 0 1.5 1.501
61 113.289 0 1.34 1.501
62 146.941 0 1.34 1.42
63 82.6961 0 1.5 1.501
64 116.348 0 1.5 1.42
65 116.348 0 1.5 1.42
66 146.941 0 1.425 1.42
67 146.941 0 1.425 1.42
68 82.6961 0 1.501 1.501
69 116.348 0.103828 1.501 1.42
70 150 0 1.42 1.42
71 116.348 0 1.42 1.5
72 82.6961 0 1.501 1.5
73 103.348 0.110164 1.501 1.42
74 137 0 1.42 1.42
75 137 0 1.42 1.42
76 103.348 0 1.5 1.42
77 116.348 0 1.42 1.4
78 116.348 0 1.42 1.4
79 116.348 0 1.42 1.4
80 116.348 0 1.42 1.4
81 141.133 0 1.501 1.204
82 174.785 0 1.42 1.204
83 174.785 0 1.42 1.204
84 144.132 0.506119 1.42 1.3597
85 144.132 0.506119 1.42 1.3597
86 144.132 0.506119 1.42 1.3597
87 113.289 0 1.34 1.501
88 116.348 0 1.5 1.42
89 146.941 0 1.34 1.42
90 82.6961 0 1.5 1.5
91 143.882 0 1.34 1.34
92 113.289 0 1.506 1.34
93 113.289 0 1.5 1.34
94 82.6961 0 1.5 1.5
95 113.289 0 1.34 1.5
96 82.6961 0 1.506 1.5
97 82.6961 0 1.5 1.5
98 143.882 0 1.34 1.425
99 113.289 0 1.5 1.425
100 143.882 0 1.425 1.425
101 113.289 0 1.5 1.425